/*--------------------------------*- C++ -*----------------------------------*\
  =========                 |
  \\      /  F ield         | OpenFOAM: The Open Source CFD Toolbox
   \\    /   O peration     | Website:  https://openfoam.org
    \\  /    A nd           | Version:  7
     \\/     M anipulation  |
\*---------------------------------------------------------------------------*/
FoamFile
{
    version     2.0;
    format      ascii;
    class       volScalarField;
    location    "120";
    object      Ci;
}
// * * * * * * * * * * * * * * * * * * * * * * * * * * * * * * * * * * * * * //

dimensions      [0 -3 0 0 1 0 0];

internalField   nonuniform List<scalar> 
8192
(
9.99999998452
10.0000000542
10.0000001532
10.0000002864
10.000000467
10.0000006903
10.0000009453
10.0000012211
10.0000015092
10.0000018047
10.0000021043
10.0000024067
10.0000027105
10.0000030152
10.0000033197
10.0000036231
10.0000039239
10.000004221
10.0000045126
10.0000047974
10.0000050734
10.0000053394
10.0000055932
10.0000058338
10.000006059
10.0000062676
10.0000064575
10.0000066277
10.0000067758
10.0000069008
10.0000070006
10.0000070741
10.0000071192
10.0000071348
10.000007119
10.0000070709
10.000006989
10.0000068726
10.0000067207
10.0000065326
10.0000063081
10.0000060467
10.0000057486
10.000005413
10.0000050408
10.0000046309
10.0000041845
10.0000037007
10.0000031823
10.0000026291
10.000002047
10.0000014384
10.0000008137
10.0000001784
9.99999954807
9.99999893009
9.9999983423
9.99999779466
9.99999731107
9.999996906
9.99999660883
9.9999964362
9.99999641723
9.99999656225
9.99999688925
9.99999739198
9.99999806973
9.9999988992
9.99999986799
10.0000009485
10.0000021286
10.0000033841
10.0000047056
10.0000060557
10.0000074222
10.0000087842
10.00001013
10.0000114378
10.000012696
10.0000138859
10.0000149993
10.0000160223
10.0000169501
10.0000177734
10.0000184902
10.0000190943
10.0000195847
10.0000199545
10.0000201983
10.000020301
10.0000202413
10.0000199801
10.0000194596
10.0000185887
10.0000172363
10.0000152106
10.0000122426
10.0000079479
10.0000017721
9.99999289536
9.9999802641
9.99996249337
9.9999377756
9.99990376688
9.99985746555
9.99979505966
9.99971176133
9.99960160554
9.99945723212
9.99926963029
9.99902786331
9.99871875877
9.9983265747
9.99783264651
9.99721499655
9.99644797181
9.99550179624
9.99434229537
9.99293037229
9.9912221473
9.98916836399
9.98671647077
9.98381098916
9.98040673039
9.97648219868
9.97212742227
9.96767066233
9.96427412934
10.0000000034
10.0000000842
10.0000001774
10.0000002978
10.0000004547
10.0000006476
10.0000008714
10.0000011198
10.0000013861
10.0000016652
10.000001953
10.0000022469
10.0000025449
10.0000028458
10.0000031482
10.000003451
10.0000037528
10.0000040524
10.0000043482
10.0000046392
10.0000049234
10.0000051999
10.000005467
10.0000057235
10.0000059678
10.0000061989
10.0000064151
10.0000066155
10.0000067983
10.0000069627
10.0000071068
10.0000072298
10.0000073298
10.0000074062
10.0000074569
10.0000074813
10.0000074776
10.000007445
10.0000073821
10.0000072878
10.0000071613
10.000007001
10.0000068062
10.0000065748
10.0000063065
10.0000059986
10.0000056512
10.0000052617
10.0000048314
10.000004359
10.0000038486
10.0000033012
10.0000027253
10.0000021249
10.0000015131
10.0000008968
10.0000002924
9.99999970968
9.99999916922
9.99999868436
9.99999827956
9.99999797001
9.99999777968
9.99999771934
9.99999780443
9.99999803396
9.99999840999
9.99999891962
9.99999955634
10.0000003033
10.0000011532
10.0000020899
10.0000031073
10.0000041874
10.0000053192
10.0000064832
10.0000076663
10.0000088484
10.000010016
10.0000111503
10.0000122395
10.000013268
10.0000142265
10.0000151027
10.0000158898
10.0000165781
10.0000171617
10.0000176298
10.0000179718
10.0000181678
10.0000181903
10.0000179937
10.0000175118
10.0000166436
10.0000152456
10.0000131111
10.0000099537
10.0000053751
9.99999879636
9.99998925234
9.99997566014
9.99995656502
9.99993005867
9.99989366764
9.99984422698
9.99977772386
9.99968912255
9.99957215803
9.99941910423
9.99922051479
9.99896492584
9.99863855128
9.99822490743
9.99770449525
9.99705431394
9.99624763063
9.99525326761
9.9940357654
9.99255402609
9.99076288031
9.98860956569
9.98604050813
9.9829899346
9.97940901145
9.97522320912
9.9704819301
9.96517240025
9.9605705027
10.0000000075
10.0000000966
10.0000001901
10.000000295
10.0000004224
10.0000005752
10.0000007531
10.0000009543
10.0000011761
10.000001416
10.0000016707
10.0000019382
10.0000022158
10.000002502
10.0000027948
10.0000030931
10.0000033951
10.0000037
10.000004006
10.0000043126
10.0000046181
10.0000049219
10.0000052226
10.0000055196
10.0000058115
10.0000060979
10.0000063771
10.0000066493
10.000006912
10.0000071659
10.0000074079
10.0000076392
10.0000078558
10.0000080593
10.0000082452
10.0000084148
10.0000085638
10.0000086924
10.0000087974
10.0000088772
10.0000089296
10.0000089516
10.0000089418
10.0000088961
10.0000088132
10.0000086887
10.0000085217
10.000008308
10.0000080479
10.0000077382
10.0000073819
10.0000069772
10.0000065311
10.0000060436
10.0000055255
10.0000049786
10.0000044172
10.0000038445
10.0000032786
10.0000027249
10.0000022052
10.000001727
10.0000013129
10.0000009688
10.0000007129
10.0000005441
10.0000004721
10.0000004887
10.0000005978
10.0000007895
10.0000010674
10.0000014232
10.0000018607
10.0000023719
10.000002958
10.0000036085
10.0000043197
10.0000050776
10.0000058746
10.0000066951
10.000007529
10.0000083598
10.0000091763
10.0000099616
10.0000107036
10.0000113841
10.0000119872
10.0000124885
10.0000128595
10.000013056
10.0000130183
10.0000126558
10.0000118417
10.0000103918
10.0000080502
10.0000044594
9.99999913371
9.99999141328
9.99998042204
9.99996493602
9.99994336599
9.99991365038
9.99987314124
9.99981846194
9.99974534863
9.99964846129
9.9995211671
9.99935530105
9.99914087523
9.998865799
9.99851548625
9.99807258156
9.99751639444
9.9968227805
9.995963185
9.9949051359
9.99361018235
9.99203644273
9.99013299289
9.9878493271
9.98511734276
9.98188562979
9.97805394233
9.97360795511
9.9683433132
9.96250105133
9.95524916219
9.94941779552
10.0000000036
10.0000001008
10.0000001935
10.0000002952
10.0000004128
10.0000005474
10.0000006991
10.0000008683
10.0000010547
10.0000012579
10.000001477
10.0000017113
10.0000019595
10.0000022207
10.0000024936
10.0000027773
10.0000030705
10.0000033725
10.0000036821
10.0000039987
10.0000043212
10.0000046493
10.0000049817
10.0000053184
10.0000056578
10.0000060005
10.0000063437
10.0000066895
10.0000070328
10.000007378
10.0000077168
10.0000080567
10.0000083853
10.0000087131
10.0000090244
10.000009331
10.0000096166
10.0000098907
10.0000101405
10.0000103696
10.000010571
10.0000107425
10.0000108815
10.0000109832
10.000011046
10.0000110664
10.0000110415
10.0000109709
10.0000108512
10.0000106841
10.0000104679
10.0000102058
10.0000098985
10.0000095502
10.0000091639
10.0000087445
10.0000082969
10.0000078263
10.0000073404
10.0000068459
10.0000063536
10.0000058725
10.0000054148
10.0000049883
10.0000046021
10.0000042579
10.0000039579
10.0000036974
10.0000034752
10.0000032868
10.0000031342
10.0000030171
10.0000029411
10.0000029088
10.0000029271
10.0000029978
10.0000031251
10.0000033081
10.0000035475
10.0000038391
10.0000041799
10.0000045614
10.0000049756
10.0000054085
10.0000058447
10.0000062609
10.0000066278
10.0000069019
10.0000070231
10.0000069025
10.0000064143
10.0000053757
10.0000035296
10.0000005136
9.9999958283
9.99998878919
9.99997847579
9.99996365748
9.99994271941
9.99991354063
9.9998733728
9.99981869263
9.9997450256
9.99964674613
9.99951683239
9.99934661338
9.9991254324
9.9988403591
9.99847571654
9.9980128295
9.99742929791
9.99669900367
9.99579078376
9.99466936268
9.99329234667
9.99161412077
9.9895777028
9.98712809412
9.98418744437
9.98069972536
9.97654833586
9.97171197343
9.96596614641
9.95947947854
9.95158479345
9.94347548567
9.93182935459
9.92578868698
10.0000000063
10.0000001139
10.0000002179
10.0000003219
10.000000436
10.0000005621
10.0000007004
10.0000008511
10.0000010153
10.0000011936
10.0000013861
10.0000015932
10.0000018149
10.0000020512
10.0000023018
10.0000025666
10.0000028448
10.0000031364
10.0000034406
10.0000037573
10.0000040853
10.0000044251
10.0000047746
10.0000051357
10.0000055038
10.0000058837
10.0000062664
10.0000066624
10.0000070542
10.0000074624
10.000007856
10.0000082707
10.0000086577
10.0000090698
10.0000094412
10.000009837
10.0000101846
10.0000105467
10.0000108617
10.0000111722
10.0000114429
10.0000116881
10.0000118991
10.0000120714
10.0000122077
10.0000123021
10.0000123542
10.0000123668
10.0000123323
10.0000122612
10.0000121428
10.0000119907
10.0000117949
10.0000115686
10.0000113046
10.0000110137
10.0000106919
10.0000103477
10.0000099811
10.0000096003
10.0000092099
10.0000088192
10.0000084355
10.0000080661
10.0000077156
10.0000073837
10.0000070675
10.0000067593
10.0000064531
10.0000061416
10.000005823
10.0000054963
10.0000051656
10.0000048348
10.0000045117
10.0000042022
10.0000039141
10.0000036529
10.0000034254
10.000003236
10.0000030889
10.000002984
10.0000029189
10.0000028843
10.0000028641
10.0000028289
10.0000027331
10.0000025042
10.0000020332
10.0000011565
9.99999963569
9.99999712662
9.99999314279
9.99998700456
9.99997777869
9.99996419848
9.99994456975
9.99991665089
9.99987751298
9.99982336924
9.99974936648
9.99964935483
9.99951559502
9.99933846784
9.99910606511
9.99880386544
9.99841414335
9.99791571236
9.9972829822
9.99648607781
9.99548905453
9.99425129772
9.99272342692
9.99085265154
9.98857186923
9.98581709563
9.98249567609
9.97854132521
9.97381575894
9.96828563986
9.96170136209
9.95419345246
9.94515078098
9.93539369393
9.92285164292
9.91150818511
9.89204427871
9.88602378854
10.0000000048
10.0000001232
10.0000002333
10.0000003453
10.0000004651
10.0000005927
10.0000007281
10.0000008722
10.0000010256
10.00000119
10.0000013665
10.000001556
10.0000017594
10.0000019774
10.0000022104
10.000002459
10.0000027229
10.000003003
10.0000032981
10.0000036096
10.0000039349
10.0000042771
10.0000046302
10.0000050018
10.0000053784
10.0000057779
10.0000061711
10.0000065969
10.0000069966
10.0000074468
10.0000078397
10.000008311
10.0000086829
10.0000091668
10.0000095071
10.0000099853
10.0000102922
10.0000107348
10.0000110147
10.0000113882
10.0000116458
10.000011929
10.0000121543
10.0000123487
10.0000125184
10.0000126387
10.0000127331
10.0000127891
10.0000128039
10.0000127957
10.0000127369
10.0000126628
10.000012538
10.0000123999
10.0000122155
10.0000120177
10.0000117792
10.0000115271
10.0000112421
10.0000109476
10.0000106335
10.0000103218
10.0000100097
10.0000097147
10.0000094335
10.0000091718
10.0000089177
10.0000086652
10.0000083989
10.000008111
10.0000077922
10.000007441
10.0000070564
10.0000066417
10.0000062016
10.000005742
10.0000052688
10.0000047881
10.0000043068
10.0000038317
10.0000033687
10.0000029207
10.0000024863
10.0000020553
10.0000016046
10.0000010898
10.0000004358
9.99999951961
9.99999815096
9.99999604144
9.99999276765
9.99998771811
9.99998002912
9.99996849901
9.9999514837
9.9999267651
9.99989139014
9.99984147912
9.99977198746
9.99967644302
9.99954660272
9.99937211688
9.999140038
9.99883444616
9.99843572275
9.9979202661
9.99725930822
9.99641911138
9.99535870371
9.99403168078
9.99238104477
9.99034584032
9.98784774914
9.98481197087
9.98112962298
9.97672088195
9.97142472434
9.96519006657
9.9577414099
9.94917007265
9.93888320875
9.92750172733
9.91339942835
9.89913183876
9.8792974703
9.86396241001
9.8324506084
9.82665355866
10.0000000087
10.0000001383
10.0000002622
10.0000003818
10.0000005059
10.0000006355
10.0000007704
10.0000009114
10.0000010597
10.0000012163
10.0000013833
10.000001562
10.0000017537
10.0000019596
10.0000021804
10.0000024173
10.00000267
10.0000029404
10.0000032261
10.0000035312
10.0000038488
10.000004189
10.0000045347
10.0000049103
10.0000052765
10.000005689
10.0000060624
10.0000065163
10.0000068762
10.0000073803
10.0000076984
10.0000082642
10.0000085092
10.0000091426
10.0000092937
10.0000099786
10.0000100455
10.0000107276
10.0000107612
10.0000113526
10.0000114245
10.0000118466
10.0000119948
10.0000122348
10.0000124255
10.0000125434
10.0000127007
10.0000127664
10.0000128414
10.0000128778
10.0000128704
10.0000128646
10.0000127916
10.0000127307
10.0000126009
10.0000124804
10.0000122956
10.0000121145
10.000011877
10.000011642
10.0000113662
10.0000111024
10.0000108216
10.000010568
10.0000103171
10.0000100956
10.0000098719
10.0000096568
10.0000094168
10.0000091582
10.0000088548
10.0000085189
10.0000081343
10.0000077128
10.0000072422
10.0000067437
10.0000062069
10.0000056512
10.0000050683
10.0000044758
10.0000038659
10.0000032474
10.0000026028
10.0000019159
10.0000011373
10.0000001935
9.99999894195
9.99999716998
9.99999454652
9.99999057786
9.99998453881
9.99997538971
9.99996166743
9.99994135016
9.99991168396
9.99986897843
9.99980834282
9.99972339675
9.99960588122
9.99944528124
9.99922825808
9.99893822045
9.99855447025
9.99805186932
9.99739943473
9.99656054875
9.99549028278
9.99413742349
9.99243848535
9.99032512439
9.98770901264
9.98450470476
9.98058866212
9.97586623984
9.97015658708
9.96338655476
9.95526033184
9.94582371137
9.93449824241
9.92174811883
9.90619615373
9.88966118441
9.86831278587
9.84835938328
9.81799945601
9.7980914861
9.74975578188
9.74445050263
10.0000000068
10.0000001455
10.000000276
10.0000004058
10.0000005397
10.0000006765
10.000000816
10.0000009588
10.0000011066
10.0000012609
10.0000014235
10.0000015967
10.0000017819
10.0000019811
10.0000021944
10.0000024245
10.0000026694
10.0000029339
10.0000032113
10.0000035126
10.00000382
10.0000041603
10.0000044904
10.000004874
10.0000052122
10.000005649
10.0000059688
10.0000064799
10.0000067371
10.0000073609
10.0000074896
10.000008283
10.0000082003
10.0000092262
10.0000088584
10.0000101452
10.0000094843
10.0000109621
10.0000101298
10.0000115862
10.0000108409
10.0000119772
10.0000115895
10.0000122061
10.0000122504
10.0000124166
10.0000126991
10.0000126796
10.0000129292
10.0000129273
10.0000130291
10.0000130633
10.0000130492
10.00001306
10.0000129736
10.0000129241
10.0000127745
10.0000126511
10.0000124333
10.0000122342
10.0000119605
10.0000117128
10.0000114216
10.0000111703
10.0000109043
10.0000106812
10.0000104472
10.0000102321
10.000009989
10.0000097295
10.0000094237
10.0000090721
10.0000086675
10.0000082127
10.000007721
10.0000071827
10.0000066271
10.000006025
10.0000054203
10.0000047661
10.0000041131
10.0000033895
10.0000026261
10.0000017043
10.0000005836
9.99999904586
9.99999689142
9.99999369796
9.99998896367
9.99998187859
9.99997118091
9.99995516077
9.99993143161
9.99989672136
9.99984660316
9.99977519162
9.99967472979
9.99953518055
9.99934360699
9.99908369094
9.99873478448
9.99827150442
9.99766216838
9.99686892891
9.99584483654
9.9945358256
9.99287431455
9.99078665859
9.98817747281
9.9849524674
9.98097732675
9.97614318932
9.97025517324
9.96321580817
9.95471824663
9.94475696772
9.9327762937
9.91909486036
9.90252480352
9.88437020689
9.86171167375
9.83873761468
9.80759527214
9.78088960417
9.73638622229
9.71145018803
9.64132344266
9.63678685201
10.0000000107
10.0000001591
10.0000003016
10.000000439
10.0000005789
10.0000007208
10.0000008641
10.0000010093
10.0000011579
10.000001312
10.0000014728
10.0000016435
10.0000018252
10.0000020209
10.0000022296
10.0000024564
10.0000026957
10.0000029581
10.0000032275
10.0000035293
10.0000038235
10.0000041704
10.0000044759
10.00000488
10.0000051698
10.0000056577
10.0000058813
10.000006507
10.0000065755
10.0000074378
10.0000072072
10.0000084647
10.0000077284
10.0000095941
10.0000081118
10.0000107927
10.0000083946
10.0000119413
10.000008722
10.0000128175
10.0000093262
10.0000131887
10.0000103664
10.0000130348
10.0000116799
10.0000126951
10.0000127947
10.0000126378
10.0000133635
10.0000129651
10.0000135116
10.0000133669
10.0000135525
10.0000135856
10.0000135719
10.0000135963
10.0000134881
10.0000134216
10.0000132203
10.0000130534
10.0000127788
10.0000125312
10.0000121828
10.0000118376
10.0000114224
10.0000110434
10.0000106656
10.0000103526
10.0000100587
10.0000097844
10.0000094738
10.0000091155
10.0000087003
10.000008222
10.0000076969
10.0000071278
10.0000065269
10.0000059095
10.0000052519
10.000004604
10.0000038642
10.0000031246
10.0000021355
10.0000010057
9.9999992263
9.99999683817
9.99999289871
9.99998721508
9.99997815249
9.99996502719
9.99994514685
9.99991688616
9.99987587791
9.99981691822
9.99973312588
9.99961543924
9.99945198674
9.99922757001
9.99892267093
9.99851296652
9.99796769421
9.99724963007
9.99631208356
9.99510056895
9.99354647289
9.99157376969
9.98908403942
9.98597722688
9.98211357299
9.9773724831
9.9715524472
9.96453225554
9.95600451332
9.94591048273
9.93372821469
9.91963734047
9.90261781475
9.88355995217
9.8601912331
9.83536847162
9.80355017509
9.77289462265
9.72920195155
9.69478988317
9.63243164158
9.60208881707
9.50540981813
9.50187904662
10.000000009
10.0000001643
10.0000003126
10.0000004591
10.0000006083
10.0000007585
10.0000009083
10.0000010586
10.0000012103
10.0000013666
10.000001528
10.0000016987
10.0000018791
10.0000020741
10.0000022802
10.0000025067
10.0000027416
10.0000030055
10.0000032668
10.0000035744
10.0000038523
10.0000042147
10.0000044868
10.000004928
10.0000051495
10.0000057211
10.0000058063
10.0000066118
10.0000064045
10.0000076361
10.0000068681
10.0000088525
10.0000070994
10.0000103329
10.0000070033
10.0000121213
10.0000065562
10.000014136
10.000005939
10.0000160319
10.0000056711
10.0000171397
10.0000064947
10.0000167834
10.0000087974
10.0000150617
10.0000118588
10.0000132472
10.000014119
10.0000127134
10.0000147905
10.0000133861
10.0000146158
10.0000141649
10.0000144794
10.0000145001
10.0000144496
10.00001442
10.0000142419
10.0000141501
10.0000138634
10.0000133813
10.0000123307
10.0000108378
10.0000089925
10.0000073125
10.00000605
10.0000054766
10.0000054532
10.0000058433
10.0000063085
10.000006746
10.0000069448
10.0000069797
10.0000067306
10.0000064076
10.0000058514
10.0000053528
10.000004631
10.0000040654
10.0000032061
10.0000024955
10.0000012292
9.99999980343
9.99999709908
9.99999325456
9.99998647338
9.99997631802
9.99995991809
9.99993582453
9.99989954041
9.999848037
9.99977444657
9.99967337684
9.99953381767
9.99934130762
9.99907822506
9.99872229822
9.99824500602
9.99761135022
9.99677697728
9.99568932943
9.99428180862
9.99247915204
9.99018415673
9.98729481392
9.98367167895
9.97918649217
9.9736387825
9.96688728409
9.95863376462
9.94876990535
9.93681616467
9.92282507961
9.90593059401
9.88667843168
9.86329886229
9.83767232009
9.80581910469
9.77306024213
9.72992782622
9.69041015831
9.63140313765
9.58842364281
9.50470979403
9.46862082848
9.34119608455
9.33886124108
10.0000000125
10.0000001758
10.0000003337
10.0000004864
10.0000006409
10.0000007963
10.0000009509
10.0000011057
10.0000012608
10.0000014197
10.0000015826
10.0000017546
10.0000019346
10.0000021304
10.0000023347
10.000002563
10.0000027938
10.000003062
10.0000033147
10.000003632
10.0000038918
10.0000042759
10.0000045102
10.000004999
10.0000051427
10.0000058164
10.0000057443
10.0000067627
10.0000062416
10.0000079049
10.0000065205
10.0000093574
10.0000064147
10.0000112897
10.0000057072
10.0000139096
10.000004179
10.0000173763
10.000001785
10.000021538
9.99999900488
10.0000254554
9.99999730771
10.0000271576
9.99999892012
10.0000246643
10.0000048751
10.000018582
10.0000125785
10.0000131202
10.0000172795
10.0000119517
10.0000175745
10.0000137725
10.0000164056
10.0000154176
10.0000157247
10.0000157325
10.0000159405
10.0000160161
10.0000142259
10.0000088762
9.9999985582
9.99998444763
9.99996933549
9.9999572785
9.99995087311
9.99995116555
9.9999567028
9.99996553668
9.99997512907
9.99998408017
9.99999113047
9.99999641241
9.99999968379
10.000001816
10.0000026413
10.0000031041
10.0000026855
10.0000022733
10.0000009511
9.99999961399
9.99999691204
9.99999373978
9.99998801325
9.99998039561
9.99996739804
9.99994903843
9.99991945302
9.99987751809
9.99981379761
9.99972550061
9.99959818062
9.99942685398
9.99919024476
9.99888040793
9.99846440534
9.99790983092
9.99717610491
9.99621439739
9.99496256424
9.9933488933
9.99128110097
9.98865910625
9.98534897995
9.9812197848
9.97607886151
9.96977110718
9.96201510794
9.95266187954
9.94127881712
9.9278109684
9.91153026545
9.89270230501
9.86995568451
9.84443429773
9.81327850772
9.77985467523
9.73777862913
9.69583341665
9.63926704106
9.5897731876
9.51288751272
9.46055465784
9.35246273774
9.31031123308
9.14879792387
9.14781712177
10.0000000111
10.0000001796
10.0000003423
10.0000005024
10.0000006643
10.0000008267
10.0000009876
10.000001148
10.0000013077
10.0000014705
10.0000016359
10.0000018105
10.0000019912
10.0000021892
10.0000023925
10.0000026237
10.0000028515
10.0000031249
10.0000033708
10.0000036983
10.0000039433
10.0000043478
10.0000045513
10.0000050819
10.0000051628
10.0000059229
10.0000057231
10.0000069203
10.0000061412
10.0000081692
10.000006269
10.0000098335
10.0000058793
10.000012171
10.0000046405
10.0000155575
10.0000021083
10.0000205131
9.99999773131
10.0000275689
9.99999113
10.0000366948
9.99998313064
10.0000457982
9.99997752361
10.0000493545
9.9999809225
10.0000413005
9.99999645321
10.000023763
10.0000157107
10.0000098466
10.0000248768
10.0000086496
10.000023075
10.0000134576
10.0000184257
10.0000186328
10.0000202792
10.0000121477
9.99998058049
9.99991389432
9.99981111143
9.99968865274
9.99957412494
9.99949563829
9.9994693506
9.99949555235
9.99956010785
9.99964509288
9.99973275355
9.99981136964
9.99987406812
9.99992050734
9.99995192262
9.99997260837
9.99998498205
9.99999312812
9.99999794386
10.0000023366
10.0000053529
10.0000089355
10.0000103554
10.0000110441
10.0000065316
9.99999796046
9.99997868663
9.9999490577
9.99989925791
9.99982754944
9.99971969253
9.99956999462
9.99935861959
9.99907363863
9.99868870369
9.99818297894
9.99752286117
9.9966744683
9.995568117
9.99413752045
9.99229778969
9.9899539385
9.98698135537
9.98325132251
9.97858400964
9.9728179036
9.96569344483
9.95703330854
9.94645229534
9.93381322338
9.91850659391
9.90058288747
9.87898069082
9.85429818137
9.82448571067
9.79153834606
9.75115921249
9.70870415635
9.65471384151
9.60237600453
9.5304341887
9.46992948165
9.37298854874
9.3105916815
9.17578867457
9.12728347796
8.92939035421
8.92989590591
10.0000000139
10.000000189
10.0000003592
10.0000005239
10.0000006899
10.0000008565
10.0000010218
10.0000011867
10.0000013504
10.000001517
10.0000016852
10.0000018628
10.0000020448
10.0000022451
10.0000024486
10.0000026824
10.0000029093
10.0000031863
10.0000034299
10.0000037629
10.0000040032
10.0000044161
10.0000046105
10.0000051556
10.0000052179
10.0000060075
10.0000057659
10.000007031
10.0000061505
10.0000083442
10.0000061956
10.0000101539
10.0000056237
10.0000127826
10.0000040373
10.0000166953
10.0000009151
10.000022528
9.99999546962
10.0000313064
9.99998633952
10.0000447774
9.99997158361
10.000064509
9.99995127399
10.0000870074
9.99993430684
10.0000971218
9.99994047946
10.0000755926
9.99998040844
10.0000284569
10.0000277073
9.99999686803
10.0000430206
9.99999574572
10.0000390582
10.0000270306
9.99999927809
9.99984106943
9.99948149733
9.99887902669
9.99808327405
9.99724085832
9.99653888674
9.99613114293
9.99608947682
9.99637984781
9.99689482217
9.9975151095
9.9981346069
9.9986798565
9.99911360138
9.99943262851
9.9996504466
9.99979068385
9.99987362127
9.99991890666
9.9999378655
9.99994230686
9.99993656365
9.999928058
9.99991643214
9.99990576896
9.99989150625
9.99987426214
9.99984578539
9.99980247562
9.9997327584
9.99962690075
9.999469845
9.99924272372
9.99892642269
9.9984892975
9.99790746055
9.99713253458
9.99613529534
9.99484631021
9.99323062052
9.99116368065
9.9885325741
9.98521502628
9.98104718998
9.97586846932
9.9694437772
9.96158074736
9.95193918734
9.9403266891
9.92623166783
9.90955200875
9.88946001538
9.86616755815
9.83819979292
9.80660652259
9.76850298858
9.72697043998
9.67597522523
9.62329849224
9.55586159868
9.49201327002
9.40307181489
9.33063526353
9.21200617469
9.13893354325
8.97592761185
8.92081655938
8.68543257015
8.687512396
10.000000013
10.0000001923
10.0000003668
10.0000005371
10.0000007084
10.0000008803
10.0000010506
10.0000012204
10.0000013888
10.0000015595
10.0000017313
10.0000019122
10.0000020967
10.0000022993
10.0000025048
10.00000274
10.0000029696
10.0000032468
10.0000034955
10.0000038254
10.0000040764
10.0000044787
10.0000046958
10.0000052139
10.0000053225
10.0000060546
10.0000058998
10.000007061
10.0000063211
10.0000083645
10.0000063868
10.0000102194
10.0000057495
10.0000130536
10.0000038968
10.0000174704
10.0000002159
10.0000240681
9.99999417198
10.0000333654
9.99998507842
10.0000467244
9.99997017686
10.0000692253
9.99994177148
10.000110135
9.99989286475
10.0001675936
9.99984223419
10.0002007856
9.99984975524
10.0001457183
9.99995613394
10.0000205889
10.0000590822
9.99996564472
10.0001511956
9.99989240955
9.99933588315
9.99772438604
9.99491470989
9.99087627604
9.98612973427
9.98159202381
9.97819698973
9.97658209302
9.97697474742
9.97905414836
9.98218852656
9.98577433086
9.98929846668
9.99238905303
9.99486066106
9.99669459521
9.99797076305
9.99881656329
9.9993570502
9.99969798668
9.99990943059
10.0000394751
10.0001126022
10.0001482588
10.000154404
10.0001406658
10.0001083663
10.0000596856
9.99999014144
9.99989314514
9.99975803627
9.9995682496
9.99930538063
9.99894191862
9.99844814614
9.99778548368
9.99690709811
9.9957651601
9.99428715947
9.9924213911
9.99005660679
9.9871490833
9.98348532241
9.978911365
9.97321696178
9.96620648816
9.95758065129
9.94711653463
9.93438111091
9.91917472558
9.90084047606
9.8793340228
9.85357641016
9.82399126399
9.78862886405
9.7490899243
9.70153999801
9.65032746534
9.58747643305
9.52350000986
9.44135695413
9.36503361453
9.25790695963
9.17278678734
9.03149517104
8.94727618168
8.75550608191
8.6935960106
8.42084540725
8.42450833644
10.0000000151
10.0000002001
10.0000003802
10.0000005542
10.0000007286
10.0000009036
10.0000010774
10.0000012511
10.0000014233
10.0000015979
10.0000017734
10.0000019573
10.0000021451
10.0000023494
10.0000025586
10.0000027938
10.0000030292
10.0000033034
10.0000035634
10.0000038832
10.0000041575
10.0000045336
10.0000047991
10.0000052561
10.0000054653
10.0000060644
10.0000061138
10.0000070029
10.0000066578
10.0000081872
10.0000069094
10.0000098845
10.0000064724
10.0000126539
10.0000046145
10.0000174648
10.0000002044
10.0000255232
9.9999922173
10.0000373477
9.99998108503
10.00005142
9.99996903285
10.0000666485
9.99995270415
10.0000957075
9.99990642996
10.0001762866
9.99979134758
10.0003269434
9.99963728924
10.0004432158
9.99964046613
10.0002604668
9.99995369712
10.0001497796
10.0000246853
9.99742680462
9.99227250958
9.98130748461
9.96541167283
9.94490768487
9.92306796398
9.90411093554
9.89141506248
9.88686201524
9.89096302308
9.90187923992
9.91667768898
9.93307083809
9.94914059606
9.96334045784
9.97484628962
9.98350287002
9.98957809276
9.99357191161
9.99604991154
9.99752889383
9.99840007142
9.99892623261
9.99925699114
9.99947427434
9.9996156336
9.99970209389
9.99974250719
9.99974157537
9.99969761609
9.99960383924
9.99944628046
9.99920599825
9.99885328945
9.99835732473
9.99766891826
9.99674488972
9.99551278596
9.99391462764
9.99185258121
9.98924855403
9.98598124762
9.98194270145
9.97699703046
9.97087311663
9.96330858575
9.95407049094
9.94278855766
9.9292101174
9.91280091415
9.8933611116
9.87007678959
9.84297964566
9.8107207838
9.77397230813
9.73027749442
9.68185278212
9.62385950998
9.56201592598
9.48631958754
9.4101580585
9.31242093896
9.22288669597
9.09691676371
8.99859560743
8.83438773158
8.73874300674
8.51859614715
8.44977737113
8.14098729324
8.14613507159
10.0000000147
10.0000002035
10.0000003878
10.000000566
10.0000007443
10.0000009229
10.0000011006
10.0000012781
10.0000014547
10.0000016333
10.0000018133
10.0000020003
10.0000021925
10.0000023986
10.0000026127
10.0000028479
10.0000030909
10.0000033617
10.0000036352
10.0000039447
10.0000042446
10.0000045945
10.0000049115
10.0000053067
10.0000056229
10.0000060812
10.0000063583
10.0000069336
10.0000070745
10.0000079241
10.0000076595
10.0000092339
10.0000078121
10.0000113717
10.0000067695
10.0000155403
10.0000028029
10.0000241241
9.99999296115
10.0000403447
9.99997470058
10.0000646193
9.99995195037
10.0000870293
9.99994046291
10.0000915711
9.99994414611
10.0001052608
9.99988903747
10.0002510586
9.99962119602
10.0006843677
9.99906498969
10.0010624473
9.99963512665
10.0003034124
9.9935676838
9.9768035448
9.94553742019
9.8926512481
9.82640331395
9.74697012616
9.67017784049
9.61019199561
9.5749039498
9.56756408283
9.58937370753
9.63272982563
9.68655341697
9.74492005586
9.80270447438
9.85478519741
9.89822591762
9.93220082049
9.95713504412
9.97425097335
9.98521788838
9.99179229516
9.99550833889
9.99752798032
9.99861830734
9.99923016522
9.99959437043
9.99981683896
9.9999380764
9.9999721618
9.99991956413
9.99977622106
9.99952791018
9.99915578431
9.99862660465
9.99789927351
9.99691996287
9.99561748828
9.99392176315
9.99172095954
9.98893764764
9.98540462035
9.98105017343
9.97563342498
9.96910520867
9.96113128201
9.95135256991
9.9394963926
9.92511714277
9.90793273354
9.88730415141
9.8630361311
9.83415524596
9.80078023568
9.76129113502
9.7166268403
9.66382540759
9.60574232252
9.53654581857
9.46334031754
9.3741377643
9.28517346065
9.17139360133
9.06820993513
8.92330837032
8.81156167715
8.62490360265
8.51779014452
8.27054137059
8.19481471209
7.85238461409
7.85880906482
10.0000000162
10.0000002101
10.0000003987
10.0000005798
10.0000007605
10.0000009416
10.0000011223
10.0000013031
10.0000014836
10.0000016659
10.0000018501
10.0000020405
10.0000022371
10.0000024456
10.0000026648
10.0000029012
10.000003151
10.0000034213
10.0000037053
10.0000040106
10.0000043283
10.0000046661
10.0000050153
10.0000053802
10.0000057597
10.0000061443
10.0000065568
10.0000069513
10.0000074038
10.0000078022
10.000008287
10.0000087342
10.0000091295
10.0000099588
10.0000095614
10.0000122405
10.0000082131
10.0000180055
10.0000011547
10.0000333005
9.99998012156
10.00006803
9.99993642058
10.0001243373
9.99988325281
10.0001656376
9.99988164839
10.000124811
9.99996590666
10.0000412819
10.0000146047
10.0001716643
9.99919087029
10.0026861246
9.99763465887
9.98871075554
9.94360432631
9.86646596573
9.73289053005
9.55104602935
9.34744972213
9.11284203431