/*--------------------------------*- C++ -*----------------------------------*\
  =========                 |
  \\      /  F ield         | OpenFOAM: The Open Source CFD Toolbox
   \\    /   O peration     | Website:  https://openfoam.org
    \\  /    A nd           | Version:  7
     \\/     M anipulation  |
\*---------------------------------------------------------------------------*/
FoamFile
{
    version     2.0;
    format      ascii;
    class       volScalarField;
    location    "120";
    object      p;
}
// * * * * * * * * * * * * * * * * * * * * * * * * * * * * * * * * * * * * * //

dimensions      [0 2 -2 0 0 0 0];

internalField   nonuniform List<scalar> 
8192
(
0.000726566282066
0.000555041758487
0.000469489791431
0.000425464048988
0.000400535011286
0.000385392074522
0.000375611574043
0.000368946077558
0.00036418755658
0.000360651860528
0.000357932056852
0.00035577491574
0.000354016327647
0.000352546078728
0.000351287832728
0.000350187297528
0.000349204965312
0.000348311502275
0.000347484726374
0.000346707567267
0.000345966651389
0.000345251294938
0.000344552768876
0.000343863748263
0.000343177887981
0.000342489484681
0.000341793198475
0.000341083815013
0.000340356031986
0.000339604258641
0.000338822419667
0.000338003756384
0.000337140619797
0.000336224251422
0.000335244549543
0.000334189820533
0.000333046517712
0.000331798973727
0.000330429137234
0.000328916330491
0.000327237051491
0.000325364851916
0.000323270329589
0.000320921279736
0.000318283050856
0.000315319145762
0.000311992093072
0.00030826458766
0.00030410085942
0.000299468183355
0.000294338398487
0.000288689276366
0.000282505590299
0.000275779801784
0.00026851239186
0.000260711982681
0.000252395448794
0.000243588176544
0.000234324531834
0.000224648519613
0.000214614533779
0.000204287896897
0.000193744620881
0.000183069810556
0.000172354558333
0.000161691756613
0.000151171569237
0.000140877334211
0.000130882607288
0.000121249754127
0.00011202994147
0.000103263944353
9.49831752507e-05
8.72106051278e-05
7.99614476257e-05
7.32435584386e-05
6.70575791167e-05
6.13969722315e-05
5.62481654793e-05
5.15909919076e-05
4.73995021997e-05
4.36431065009e-05
4.02879224217e-05
3.72981801133e-05
3.46375485721e-05
3.22702848219e-05
3.01621497039e-05
2.82810736229e-05
2.65975844211e-05
2.50850289545e-05
2.3719628378e-05
2.24804092466e-05
2.13490486904e-05
2.03096664341e-05
1.93485891455e-05
1.84541063819e-05
1.76162312341e-05
1.68264744329e-05
1.60776367203e-05
1.53636219955e-05
1.46792715839e-05
1.40202191127e-05
1.33827644168e-05
1.27637648425e-05
1.21605418202e-05
1.15708009144e-05
1.09925632958e-05
1.04241070959e-05
9.86391690594e-06
9.31064028268e-06
8.76304994414e-06
8.22001102032e-06
7.68045260677e-06
7.14334373982e-06
6.60767404405e-06
6.07244069412e-06
5.53664428204e-06
4.99929909787e-06
4.45946691851e-06
3.91633124998e-06
3.36934181773e-06
2.8184852447e-06
2.26478813584e-06
1.71126567706e-06
1.16476795942e-06
6.39770757686e-07
1.67691833031e-07
-9.4404054459e-08
0.000577627088361
0.000514138904781
0.000464504967278
0.000431925758795
0.000410081520048
0.000394974727617
0.00038422253904
0.000376357878093
0.000370454513121
0.000365913801936
0.000362339829368
0.000359464761995
0.000357103398716
0.000355124982507
0.000353435377852
0.000351965575428
0.000350664126516
0.000349492062511
0.000348419415086
0.000347422786114
0.00034648361824
0.000345586940702
0.000344720442305
0.000343873772318
0.000343038001959
0.00034220519795
0.00034136807665
0.000340519715364
0.000339653301214
0.00033876190452
0.00033783826668
0.000336874594699
0.000335862356564
0.000334792073313
0.000333653105579
0.000332433434343
0.000331119438256
0.000329695672962
0.000328144661825
0.000326446712181
0.000324579776727
0.000322519385504
0.000320238679454
0.000317708580528
0.000314898134017
0.000311775054213
0.000308306492203
0.000304460023353
0.000300204821293
0.000295512948526
0.000290360657044
0.000284729569028
0.000278607612587
0.000271989637097
0.000264877723717
0.000257281307946
0.000249217279446
0.000240710183093
0.000231792552548
0.000222505354648
0.000212898492799
0.00020303116812
0.000192971627576
0.000182795777948
0.000172584532853
0.000162420286558
0.000152383134939
0.000142547433412
0.000132979275812
0.000123735270138
0.000114862484411
0.000106399038035
9.83748430919e-05
9.0812269538e-05
8.37266630737e-05
7.71266688806e-05
7.10143651189e-05
6.53853193476e-05
6.02287485755e-05
5.55279350102e-05
5.12609527582e-05
4.74016629798e-05
4.39208729661e-05
4.07875374624e-05
3.79698934526e-05
3.54364499284e-05
3.31567874628e-05
3.11021534121e-05
2.92458613327e-05
2.75635186264e-05
2.6033113482e-05
2.46349942324e-05
2.33517716999e-05
2.21681711226e-05
2.10708548123e-05
2.00482319227e-05
1.9090266906e-05
1.81882947452e-05
1.73348478367e-05
1.65234974204e-05
1.57487106135e-05
1.50057232402e-05
1.42904276998e-05
1.35992749198e-05
1.29291889784e-05
1.22774931395e-05
1.16418458144e-05
1.10201852921e-05
1.04106819574e-05
9.81169713214e-06
9.22174760897e-06
8.63947545937e-06
8.06362271813e-06
7.49301124067e-06
6.92652828731e-06
6.36311951042e-06
5.80179191091e-06
5.24163151575e-06
4.68184308587e-06
4.12182410614e-06
3.56129235755e-06
3.00049886169e-06
2.44057788758e-06
1.88412143912e-06
1.33612781889e-06
8.05633598993e-07
3.07888962283e-07
-3.27562308691e-08
0.000494613884525
0.000471982374334
0.000446045895503
0.000424874322651
0.000408821543996
0.000396573609623
0.000387108213326
0.000379696158394
0.000373814664614
0.00036908426344
0.000365226679392
0.000362036041226
0.000359358742504
0.000357079165048
0.000355109484208
0.000353382349375
0.000351845599334
0.000350458421472
0.000349188538521
0.000348010129406
0.00034690227719
0.000345847797517
0.000344832343352
0.00034384371124
0.000342871295834
0.000341905650284
0.000340938127177
0.000339960578744
0.000338965096982
0.000337943782254
0.000336888530847
0.000335790834046
0.000334641583206
0.000333430876903
0.000332147828004
0.00033078037024
0.000329315066108
0.000327736920502
0.000326029207753
0.000324173323617
0.000322148678321
0.000319932651677
0.000317500636096
0.000314826197142
0.000311881382536
0.000308637207711
0.000305064336569
0.000301133958968
0.000296818840034
0.00029209448332
0.00028694031357
0.000281340757258
0.000275286094342
0.000268772995157
0.000261804747007
0.000254391289807
0.000246549239759
0.000238302024705
0.000229680132251
0.000220721439354
0.000211471650263
0.000201984750352
0.000192322982198
0.000182555686509
0.000172756835799
0.000163001746308
0.000153363598841
0.000143910247166
0.00013470188494
0.000125790034258
0.000117217702004
0.000109020047992
0.000101225040753
9.38539867582e-05
8.69219503769e-05
8.04380105303e-05
7.44053232749e-05
6.88211001629e-05
6.36766976765e-05
5.89579729759e-05
5.46459484928e-05
5.07177286259e-05
4.71475591748e-05
4.39079137881e-05
4.09705103684e-05
3.83071913427e-05
3.58906321906e-05
3.36948696293e-05
3.16956595918e-05
2.98706874216e-05
2.81996576381e-05
2.66642916949e-05
2.52482594292e-05
2.39370663977e-05
2.2717914599e-05
2.15795502237e-05
2.05121080822e-05
1.95069596379e-05
1.85565688879e-05
1.76543588293e-05
1.67945896426e-05
1.59722491038e-05
1.51829548182e-05
1.44228677893e-05
1.36886163036e-05
1.29772293268e-05
1.22860782636e-05
1.16128263105e-05
1.09553843659e-05
1.03118729418e-05
9.68058929431e-06
9.05997956241e-06
8.4486155331e-06
7.84517635811e-06
7.24843550465e-06
6.65725418406e-06
6.07058275868e-06
5.48747308819e-06
4.90710568857e-06
4.32883805129e-06
3.75228282556e-06
3.17742932458e-06
2.60482782626e-06
2.03586630522e-06
1.47317939197e-06
9.21147424378e-07
3.85558837805e-07
-1.55429885755e-08
0.000449973993387
0.000441637508845
0.000427505053543
0.000413774030605
0.000402403705095
0.000393180592846
0.000385650458967
0.000379444285636
0.0003742835863
0.000369955678272
0.000366294792036
0.000363169887134
0.00036047652798
0.000358131076494
0.00035606630596
0.000354227984714
0.00035257217913
0.000351063114662
0.000349671477368
0.000348373064092
0.000347147707856
0.000345978419466
0.000344850698259
0.000343751974565
0.000342671155038
0.000341598243088
0.000340524021781
0.000339439784516
0.000338337097448
0.00033720758651
0.000336042741574
0.000334833731834
0.000333571227869
0.000332245227107
0.000330844880707
0.000329358321309
0.000327772492875
0.000326072985949
0.000324243884398
0.000322267633048
0.000320124939674
0.000317794729523
0.000315254175406
0.000312478830928
0.000309442897074
0.000306119651676
0.00030248206451
0.000298503606264
0.000294159234999
0.000289426510048
0.000284286742682
0.000278726055078
0.00027273620125
0.000266315035767
0.00025946662094
0.000252201117456
0.000244534697109
0.0002364896304
0.000228094500009
0.000219384466516
0.000210401733547
0.000201196293038
0.000191826338739
0.0001823573309
0.000172859453894
0.000163404216778
0.000154060948407
0.000144893532053
0.000135958021153
0.000127301851175
0.000118964431935
0.000110978111629
0.000103368855237
9.61567005254e-05
8.93561451557e-05
8.29763672108e-05
7.70211852033e-05
7.14888907659e-05
6.63722138176e-05
6.16586076903e-05
5.73308855163e-05
5.33681220325e-05
4.97466894177e-05
4.64413027123e-05
4.34259798955e-05
4.06748574429e-05
3.81628341311e-05
3.58660414341e-05
3.3762155607e-05
3.18305761143e-05
3.00524979973e-05
2.84109050583e-05
2.68905072609e-05
2.54776417435e-05
2.41601523894e-05
2.29272592316e-05
2.17694255869e-05
2.06782284189e-05
1.96462353224e-05
1.86668902271e-05
1.77344087447e-05
1.68436835083e-05
1.59901992398e-05
1.51699571222e-05
1.43794077412e-05
1.36153919214e-05
1.28750886231e-05
1.21559692338e-05
1.14557575026e-05
1.07723945952e-05
1.0104008695e-05
9.4488888532e-06
8.80546277418e-06
8.17227855611e-06
7.5479904525e-06
6.93134915508e-06
6.32119726917e-06
5.71647129359e-06
5.11621188565e-06
4.5195853437e-06
3.92592056099e-06
3.33476829656e-06
2.74599276382e-06
2.15990736249e-06
1.57744416719e-06
1.00018035492e-06
4.292460208e-07
-1.23894282788e-08
0.000422263942522
0.000420363860753
0.000412631283888
0.000403498910004
0.000395270817089
0.000388283571562
0.000382379724101
0.00037735375089
0.000373037270839
0.000369300649293
0.000366042689346
0.000363182202671
0.000360652588691
0.000358398439262
0.000356373292217
0.000354538014748
0.000352859548725
0.000351309886891
0.0003498652152
0.000348505186365
0.000347212302415
0.000345971389499
0.000344769150857
0.000343593785822
0.000342434663363
0.000341282036706
0.000340126796617
0.000338960255812
0.000337773952512
0.000336559470526
0.000335308270984
0.000334011531704
0.000332659990921
0.000331243792888
0.000329752333723
0.000328174106871
0.000326496548884
0.000324705887944
0.000322786999797
0.000320723278799
0.0003184965356
0.000316086937731
0.000313473014757
0.000310631755292
0.00030753882761
0.000304168957336
0.000300496491632
0.000296496166964
0.000292144073711
0.000287418774873
0.000282302488292
0.000276782189425
0.000270850453566
0.000264505875376
0.000257753029498
0.000250602161123
0.000243068958613
0.000235174627971
0.000226946119663
0.000218416310899
0.000209624482715
0.000200617528809
0.000191451080456
0.00018218881555
0.000172899553177
0.000163653460422
0.000154518346366
0.000145556078553
0.000136819890506
0.000128353846837
0.000120194157836
0.000112370628837
0.000104907351029
9.78230646566e-05
9.11315701235e-05
8.48419590097e-05
7.89584453471e-05
7.34799896403e-05
6.84000995852e-05
6.37070507402e-05
5.93845362235e-05
5.54126108296e-05
5.17687613669e-05
4.8428962189e-05
4.53686192619e-05
4.25633492647e-05
3.99895751367e-05
3.76249449381e-05
3.54485961582e-05
3.34412946924e-05
3.15854783843e-05
2.98652322476e-05
2.82662177941e-05
2.67755740699e-05
2.53818034064e-05
2.40746512145e-05
2.28449861027e-05
2.16846844554e-05
2.05865218952e-05
1.95440729942e-05
1.85516197262e-05
1.76040687161e-05
1.66968769255e-05
1.58259853009e-05
1.49877597224e-05
1.41789386336e-05
1.33965866466e-05
1.26380535363e-05
1.19009379906e-05
1.11830556382e-05
1.04824108438e-05
9.79717193896e-06
9.12564953133e-06
8.46627774116e-06
7.81759821053e-06
7.17824699149e-06
6.54694449473e-06
5.92248909287e-06
5.30375530008e-06
4.68969829449e-06
4.07936749526e-06
3.47193329475e-06
2.86673081786e-06
2.26331595728e-06
1.66148224003e-06
1.06100436623e-06
4.60389425422e-07
-1.14390508597e-08
0.000403832777691
0.000404813945163
0.000400847484935
0.000394775925656
0.000388733000207
0.000383341295996
0.00037865173558
0.000374569671343
0.000370988701838
0.000367820496824
0.00036499580418
0.00036245988208
0.000360168290617
0.000358083985006
0.000356175459503
0.000354415560123
0.000352780685565
0.000351250206353
0.000349806008436
0.000348432112403
0.00034711434353
0.000345840040015
0.000344597792413
0.000343377210896
0.000342168713521
0.000340963332408
0.000339752538944
0.000338528085467
0.000337281854634
0.000336005716946
0.000334691393656
0.000333330322607
0.000331913524847
0.000330431470222
0.000328873940599
0.000327229890052
0.000325487302222
0.000323633046434
0.000321652736048
0.000319530595237
0.000317249344105
0.000314790117008
0.000312132435009
0.000309254260454
0.000306132168264
0.000302741673193
0.000299057751361
0.000295055584512
0.000290711532286
0.00028600429888
0.000280916203685
0.000275434393909
0.000269551768516
0.000263267374704
0.000256586186022
0.00024951850945
0.000242079570288
0.000234289634246
0.000226174326659
0.000217764643828
0.000209097299737
0.000200216609732
0.000191176805495
0.000182041649543
0.000172880728567
0.000163764964479
0.000154762670036
0.000145935407596
0.000137334592832
0.00012900127613
0.000120968668368
0.000113264305714
0.000105910604398
9.89250319541e-05
9.23206305201e-05
8.61063352112e-05
8.02866319806e-05
7.48608796817e-05
6.98228979626e-05
6.51611404904e-05
6.08594123823e-05
5.68979184974e-05
5.32544222148e-05
4.99053527219e-05
4.68267622547e-05
4.39950868245e-05
4.13877023161e-05
3.89832936077e-05
3.67620679433e-05
3.47058481948e-05
3.27980794872e-05
3.10237775588e-05
2.93694408893e-05
2.78229429005e-05
2.63734155298e-05
2.50111317941e-05
2.37273920693e-05
2.25144169438e-05
2.13652480649e-05
2.02736576001e-05
1.92340662831e-05
1.82414697517e-05
1.72913726095e-05
1.63797296207e-05
1.55028933383e-05
1.46575675431e-05
1.38407658256e-05
1.30497747574e-05
1.22821210716e-05
1.15355423977e-05
1.08079610718e-05
1.0097460669e-05
9.40226488624e-06
8.72071853198e-06
8.05127038453e-06
7.3924578464e-06
6.74289339621e-06
6.10125313051e-06
5.46626793493e-06
4.83671831257e-06
4.21143413728e-06
3.58930007188e-06
2.96926295275e-06
2.3503205291e-06
1.73141631009e-06
1.1110232121e-06
4.85975885068e-07
-9.95918467178e-09
0.00039088574635
0.000393111378937
0.000391398549021
0.000387446521388
0.000383009705674
0.000378807195919
0.000375029730564
0.000371672645003
0.000368679252226
0.00036598961573
0.000363553060987
0.000361329004994
0.000359284916702
0.000357394154284
0.000355634322542
0.000353986152296
0.000352432760461
0.000350959155984
0.000349551895167
0.000348198825051
0.000346888878493
0.000345611900241
0.000344358492608
0.000343119876983
0.000341887759927
0.000340654207505
0.000339411527704
0.000338152159371
0.000336868561591
0.000335553104936
0.000334197963002
0.000332795002711
0.000331335671877
0.000329810882641
0.000328210889542
0.000326525161345
0.000324742246344
0.000322849631846
0.000320833600102
0.000318679085432
0.000316369540859
0.000313886827793
0.00031121114918
0.000308321055183
0.000305193559761
0.000301804414661
0.000298128590385
0.000294141007049
0.000289817536085
0.000285136252129
0.000280078848163
0.000274632032279
0.000268788611152
0.000262547904095
0.000255915288344
0.000248901185187
0.000241520367525
0.000233792243532
0.000225741442153
0.000217397480924
0.000208794601579
0.000199974612277
0.000190991289564
0.000181910416358
0.000172804473316
0.000163747078653
0.000154809026619
0.000146053318598
0.000137530325911
0.000129277992766
0.000121326480349
0.000113701356895
0.000106423611203
9.9509432583e-05
9.29710370242e-05
8.68172123945e-05
8.10527146378e-05
7.56771349123e-05
7.06842102567e-05
6.6061983324e-05
6.17936628353e-05
5.78588486268e-05
5.42348337073e-05
5.08978001313e-05
4.78238115404e-05
4.4989566143e-05
4.23729157244e-05
3.99531820087e-05
3.77113132084e-05
3.56299244264e-05
3.36932600263e-05
3.18871080052e-05
3.01986882667e-05
2.86165297855e-05
2.71303463254e-05
2.57309165518e-05
2.44099717681e-05
2.31600928046e-05
2.19746165202e-05
2.08475517435e-05
1.97735041207e-05
1.87476091658e-05
1.77654727329e-05
1.68231181336e-05
1.59169391492e-05
1.50436582412e-05
1.42002893188e-05
1.3384104484e-05
1.25926042262e-05
1.18234905951e-05
1.10746429223e-05
1.03440957121e-05
9.63001835667e-06
8.93069638322e-06
8.24451398812e-06
7.5699376875e-06
6.9055010006e-06
6.24979020229e-06
5.60143127315e-06
4.95907812464e-06
4.32140152275e-06
3.68707568993e-06
3.05475213831e-06
2.42299021117e-06
1.79006574199e-06
1.15349002474e-06
5.09007676277e-07
-6.59666791121e-09
0.000381384514745
0.000384087958048
0.000383732017826
0.000381266137485
0.000378045658318
0.000374768896073
0.000371703396434
0.000368912877397
0.000366383989049
0.000364081842874
0.000361970521223
0.000360019039138
0.000358202009304
0.000356498734926
0.000354892079262
0.000353367518655
0.000351912444418
0.000350515673817
0.000349167111644
0.000347857512197
0.000346578305226
0.000345321461407
0.000344079381589
0.000342844804228
0.000341610713015
0.000340370251205
0.000339116642054
0.000337843109789
0.000336542798297
0.000335208688121
0.00033383351056
0.000332409657641
0.000330929086649
0.000329383217881
0.000327762824235
0.00032605791141
0.000324257587771
0.000322349923593
0.00032032180066
0.000318158755306
0.000315844821468
0.000313362385731
0.00031069207405
0.000307812700376
0.000304701319785
0.000301333441309
0.000297683463825
0.000293725396221
0.000289433903233
0.000284785675075
0.000279761044445
0.000274345655131
0.000268531812145
0.000262318984722
0.000255713055983
0.000248724661426
0.000241368042841
0.000233661701978
0.000225629651002
0.000217300455082
0.00020870567704
0.000199884042404
0.000190889670765
0.00018179274153
0.000172670993613
0.000163602594385
0.000154662968557
0.000145918681446
0.000137419667954
0.000129200017996
0.000121286495992
0.000113703162993
0.000106469908245
9.96015078655e-05
9.31091913624e-05
8.70016638525e-05
8.12840591591e-05
7.59560991119e-05
7.10110476379e-05
6.64359251646e-05
6.22126201987e-05
5.83193788978e-05
5.47323072869e-05
5.14266886514e-05
4.83780271718e-05
4.55627968878e-05
4.29589194035e-05
4.0546019226e-05
3.83055138936e-05
3.62205924079e-05
3.42761253399e-05
3.24585385324e-05
3.07556718888e-05
2.91566367697e-05
2.76516797073e-05
2.62320564336e-05
2.48899177689e-05
2.36182076017e-05
2.24105723549e-05
2.12612810345e-05
2.0165154748e-05
1.91175046339e-05
1.81140771386e-05
1.71510057212e-05
1.62247681108e-05
1.53321483859e-05
1.44702031866e-05
1.36362314932e-05
1.28277474305e-05
1.2042455655e-05
1.12782288924e-05
1.05330872725e-05
9.80517911036e-06
9.09276284991e-06
8.39418988702e-06
7.70788805267e-06
7.03234551996e-06
6.36609490215e-06
5.70769710274e-06
5.05572396352e-06
4.40873723998e-06
3.76525776196e-06
3.12370990514e-06
2.48230755524e-06
1.83881188837e-06
1.19004495839e-06
5.31054836308e-07
-5.78859748648e-10
0.000374167382022
0.000376990623541
0.000377450256511
0.000376029944482
0.000373741072682
0.000371203891138
0.000368714130051
0.000366381077771
0.00036422679877
0.000362239155726
0.000360395967198
0.000358674631453
0.000357055253552
0.000355521154016
0.000354058473279
0.000352655570423
0.000351302467905
0.000349990409667
0.000348711531078
0.000347458618489
0.000346224934025
0.000345004085332
0.000343789924858
0.000342576471911
0.000341357838307
0.000340128159353
0.000338881535962
0.00033761197368
0.000336313319739
0.000334979197092
0.000333602934094
0.000332177488468
0.000330695364074
0.000329148518927
0.000327528262724
0.000325825142108
0.00032402881188
0.000322127890769
0.000320109801157
0.000317960593959
0.000315664763075
0.000313205059309
0.000310562322229
0.00030771536089
0.000304640930467
0.00030131386981
0.000297707479939
0.000293794227494
0.000289546841061
0.00028493982476
0.000279951334482
0.000274565222045
0.000268772803175
0.000262573580294
0.000255974135665
0.000248985452838
0.000241620957557
0.000233897895101
0.000225840139663
0.000217476228154
0.000208834476885
0.000199948850803
0.000190874514798
0.000181689475625
0.000172479602797
0.000163329253535
0.000154321032211
0.00014552815634
0.000137000613117
0.000128766770517
0.000120849293896
0.000113271656733
0.000106053114735
9.92065830619e-05
9.27419285428e-05
8.66678880484e-05
8.09901957748e-05
7.57086209687e-05
7.08154867139e-05
6.62960731785e-05
6.21301368701e-05
5.82937693629e-05
5.47611566463e-05
5.15060452757e-05
4.85028455553e-05
4.57273721432e-05
4.31572686871e-05
4.07721874993e-05
3.8553799181e-05
3.64856971088e-05
3.4553245946e-05
3.27434076037e-05
3.10445653015e-05
2.94463571562e-05
2.79395247302e-05
2.65157783057e-05
2.51676786564e-05
2.38885340584e-05
2.26723109007e-05
2.15135561559e-05
2.04073300852e-05
1.93491476903e-05
1.83349276304e-05
1.7360947476e-05
1.64238043553e-05
1.55203801647e-05
1.46478106562e-05
1.38034577866e-05
1.29848848232e-05
1.2189833735e-05
1.1416204481e-05
1.066203582e-05
9.92548732659e-06
9.20482228757e-06
8.49839119483e-06
7.80461549561e-06
7.12197122825e-06
6.44897195335e-06
5.78415000231e-06
5.126034083e-06
4.47311927841e-06
3.82382115719e-06
3.17639718296e-06
2.52880283182e-06
1.87842617567e-06
1.22162601284e-06
5.53035679045e-07
8.59177960784e-09
0.000368539785754
0.000371318496197
0.000372263176754
0.00037157819564
0.000370004445021
0.000368064936774
0.000366051520813
0.000364098836301
0.000362255191796
0.000360527927014
0.000358907661352
0.000357379842284
0.000355929669137
0.000354543857344
0.000353211015422
0.000351921480807
0.000350666993783
0.000349440365415
0.000348235193501
0.000347045636996
0.000345866242673
0.000344691813132
0.000343517306093
0.000342337756279
0.000341148207212
0.000339943646537
0.000338718957385
0.000337468866094
0.000336187889044
0.000334870276532
0.000333509951965
0.00033210044469
0.000330634814654
0.000329105566941
0.000327504553945
0.000325822862713
0.000324050684688
0.000322177165123
0.000320190229745
0.000318076387596
0.000315820511701
0.000313405604667
0.000310812565485
0.000308019988308
0.000305004044213
0.000301738521764
0.000298195125849
0.000294344147144
0.000290155603748
0.0002856009146
0.0002806550866
0.000275299251398
0.000269523061673
0.000263325871414
0.000256715254803
0.000249702722487
0.000242300204172
0.000234522679778
0.000226394493564
0.000217946047457
0.000209201421404
0.000200186047892
0.00019095677992
0.000181605115087
0.000172228785404
0.000162919273932
0.000153769605351
0.000144864835067
0.000136255411256
0.000127959991249
0.000119996030886
0.000112388422247
0.000105156434497
9.83099735148e-05
9.18567546191e-05
8.58057389149e-05
8.01636220154e-05
7.49300900561e-05
7.00958718309e-05
6.56435845025e-05
6.15498816387e-05
5.778779837e-05
5.43288181896e-05
5.11445054987e-05
4.82076666337e-05
4.5493067488e-05
4.29777836013e-05
4.06412817808e-05
3.84653295516e-05
3.64338103859e-05
3.45324994766e-05
3.27488343045e-05
3.10716987442e-05
2.94912293203e-05
2.79986460529e-05
2.65861071153e-05
2.52465849522e-05
2.39737610525e-05
2.27619365407e-05
2.16059560533e-05
2.05011426712e-05
1.94432420583e-05
1.84283742389e-05
1.7452991743e-05
1.65138430467e-05
1.56079404389e-05
1.47325315708e-05
1.38850740822e-05
1.3063212772e-05
1.22647588699e-05
1.1487671006e-05
1.07300375273e-05
9.99005982617e-06
9.26603635349e-06
8.55634696881e-06
7.8594372076e-06
7.17380189764e-06
6.49796723976e-06
5.83046985337e-06
5.16983007408e-06
4.51451448243e-06
3.86287832291e-06
3.21307087101e-06
2.56287484565e-06
1.9094368492e-06
1.24884230334e-06
5.75526810405e-07
2.12317658452e-08
0.000364067565234
0.000366729534004
0.000367955083222
0.000367785895107
0.000366760133705
0.000365305053246
0.000363690364148
0.000362060406876
0.000360480815609
0.000358974357868
0.000357542964341
0.000356179711595
0.00035487478173
0.00035361816038
0.000352400687958
0.000351214333461
0.000350052133713
0.000348908012644
0.000347776578172
0.000346652936408
0.000345532535534
0.000344411039519
0.000343284230211
0.000342147926727
0.000340997917726
0.000339829899156
0.000338639426905
0.000337421868296
0.000336172353406
0.000334885723968
0.000333556477802
0.000332178706761
0.000330746026013
0.000329251492255
0.00032768750805
0.000326045709
0.000324316829919
0.000322490545682
0.000320555282275
0.000318497994133
0.000316303906009
0.000313956222536
0.000311435818192
0.000308720936678
0.000305786953512
0.000302606288517
0.000299148590168
0.000295381338623
0.000291271011225
0.000286784914146
0.000281893714722
0.000276574587347
0.000270814516965
0.000264612353245
0.000257977079138
0.000250921024692
0.00024345324905
0.000235584040356
0.000227338847731
0.000218753988154
0.000209847917542
0.000200629527074
0.000191157966334
0.000181548534326
0.000171915912645
0.000162357661321
0.000152981567355
0.0001438941583
0.000135146709473
0.000126739892133
0.000118684477541
0.000111011172205
0.000103739990616
9.68751550627e-05
9.04207227579e-05
8.43862509958e-05
7.87799419027e-05
7.36011117483e-05
6.88379051032e-05
6.44690376319e-05
6.04668675296e-05
5.68003398643e-05
5.34373916159e-05
5.03467521072e-05
4.74991461041e-05
4.48679598638e-05
4.24294827987e-05
4.0162858966e-05
3.80498703496e-05
3.6074643816e-05
3.42233413732e-05
3.24838671721e-05
3.08456067106e-05
2.92992027706e-05
2.78363668131e-05
2.64497219032e-05
2.51326724586e-05
2.38792962159e-05
2.26842543589e-05
2.15427163729e-05
2.04502968322e-05
1.94030018524e-05
1.83971834052e-05
1.74295000407e-05
1.64968828632e-05
1.55965058148e-05
1.47257595115e-05
1.38822279933e-05
1.30636678738e-05
1.22679894307e-05
1.14932392577e-05
1.07375841132e-05
9.99929563873e-06
9.2767355862e-06
8.56834116634e-06
7.87260999473e-06
7.18808391419e-06
6.51333053996e-06
5.84692064962e-06
5.18739817763e-06
4.53323724189e-06
3.88277661339e-06
3.23411576932e-06
2.58494814917e-06
1.93229971099e-06
1.27214419024e-06
5.98897575225e-07
3.75144384615e-08
0.000360467552718
0.000362984140575
0.00036436279456
0.000364553413224
0.000363946089841
0.00036288310577
0.00036160355472
0.000360250592537
0.000358899529376
0.00035758435586
0.000356316378378
0.000355095570358
0.000353916893345
0.000352773569315
0.000351658641229
0.000350565625317
0.000349488707473
0.000348422727291
0.000347363075523
0.000346305566861
0.000345246316141
0.000344181628588
0.000343107910874
0.000342021594007
0.000340919063771
0.000339796602942
0.000338650343181
0.000337476218164
0.000336269917031
0.0003350268359
0.000333742025236
0.000332410130818
0.000331025325793
0.000329581231013
0.000328070820213
0.000326486305947
0.000324819001197
0.000323059150658
0.000321195724757
0.000319216169199
0.000317106103905
0.000314848969251
0.000312425626707
0.000309813938687
0.000306988381706
0.000303919789356
0.00030057537176
0.000296919200061
0.000292913351915
0.00028851987318
0.000283703652928
0.000278436260994
0.000272700492329
0.000266493987242
0.000259827724561
0.00025271546742
0.000245160909865
0.000237164224737
0.000228752049974
0.000219975270433
0.000210845331262
0.000201337635352
0.000191514210953
0.000181534228164
0.000171536471826
0.000161618600027
0.000151909208623
0.000142555397902
0.000133609630012
0.000125037270624
0.000116841004369
0.00010906681951
0.000101735686595
9.4840221969e-05
8.83781866108e-05
8.2360557941e-05
7.67978452485e-05
7.16883676304e-05
6.70161581171e-05
6.27543699872e-05
5.88696222817e-05
5.53256120734e-05
5.20858482292e-05
4.9115597506e-05
4.63830949366e-05
4.38601115639e-05
4.15220381166e-05
3.93476632286e-05
3.73187979096e-05
3.5419852164e-05
3.36374260183e-05
3.19599451844e-05
3.03773512887e-05
2.88808456834e-05
2.74626807516e-05
2.61159911108e-05
2.48346572242e-05
2.36131949116e-05
2.2446665319e-05
2.13306010412e-05
2.02609449692e-05
1.92339992324e-05
1.82463821593e-05
1.72949916723e-05
1.6376973851e-05
1.54896956902e-05
1.46307212544e-05
1.3797790603e-05
1.29888009567e-05
1.22017896714e-05
1.1434918631e-05
1.06864597158e-05
9.95478099886e-06
9.23833330598e-06
8.5356366942e-06
7.84526626188e-06
7.16583643017e-06
6.49598236586e-06
5.83433640637e-06
5.17949598346e-06
4.52997731261e-06
3.88414563016e-06
3.24010782244e-06
2.59554756258e-06
1.94747960825e-06
1.29190538277e-06
6.23374165084e-07
5.74874263469e-08
0.000357547318719
0.00035991012365
0.000361360803221
0.000361799836856
0.000361510505069
0.000360763789388
0.000359765865325
0.000358651868923
0.000357500803264
0.000356354008893
0.000355230059432
0.000354134837383
0.000353067701357
0.000352025006417
0.000351001992982
0.000349993728688
0.000348995525655
0.000348003080555
0.000347012476938
0.000346020125812
0.000345022684235
0.000344016971244
0.000342999894313
0.000341968381613
0.000340919313663
0.000339849471932
0.000338755491306
0.000337633814993
0.000336480649864
0.000335291920102
0.000334063216959
0.000332789742234
0.000331466242774
0.000330086932777
0.000328645399984
0.000327134490767
0.000325546167853
0.000323871332807
0.000322099603638
0.000320219036452
0.000318215779689
0.000316073651875
0.00031377364187
0.000311293348542
0.000308606410148
0.000305682026513
0.000302484746256
0.000298974757058
0.000295108939651
0.000290842896314
0.000286134104541
0.000280946432059
0.000275256243134
0.000269058657295
0.000262367497876
0.000255199450878
0.000247548785895
0.000239393955964
0.000230760289345
0.000221731478923
0.0002123121701
0.000202407874137
0.000192084006984
0.000181584485994
0.000171082399505
0.000160658246333
0.00015047005365
0.000140744958184
0.000131536970246
0.000122739127815
0.000114346368322
0.000106439983141
9.90394139147e-05
9.21130263777e-05
8.56481460462e-05
7.96591179997e-05
7.41599267248e-05
6.91466388392e-05
6.45968838732e-05
6.04761225429e-05
5.67435938919e-05
5.33565467477e-05
5.02732273141e-05
4.74549196791e-05
4.48671063796e-05
4.24798689969e-05
4.02677466313e-05
3.8209286561e-05
3.62864722122e-05
3.44841462246e-05
3.27894896915e-05
3.11915806861e-05
2.9681033749e-05
2.82497118482e-05
2.68904988796e-05
2.55971207226e-05
2.43640043406e-05
2.31861662822e-05
2.20591237848e-05
2.09788232259e-05