/*--------------------------------*- C++ -*----------------------------------*\
  =========                 |
  \\      /  F ield         | OpenFOAM: The Open Source CFD Toolbox
   \\    /   O peration     | Website:  https://openfoam.org
    \\  /    A nd           | Version:  7
     \\/     M anipulation  |
\*---------------------------------------------------------------------------*/
FoamFile
{
    version     2.0;
    format      ascii;
    class       surfaceScalarField;
    location    "120";
    object      phi;
}
// * * * * * * * * * * * * * * * * * * * * * * * * * * * * * * * * * * * * * //

dimensions      [0 3 -1 0 0 0 0];

internalField   nonuniform List<scalar> 
16192
(
6.92868361451e-10
2.44631638549e-10
4.93453345156e-10
1.99415011755e-10
3.6470244276e-10
1.28750897991e-10
2.82154490404e-10
8.25479479569e-11
2.27608120574e-10
5.45463650999e-11
1.90111508545e-10
3.74966070399e-11
1.63314106168e-10
2.67973972771e-11
1.43496782063e-10
1.98173190096e-11
1.28420434787e-10
1.50763422626e-11
1.16689318847e-10
1.17311110414e-11
1.07400964436e-10
9.2883496453e-12
9.99508296286e-11
7.45013016792e-12
9.39205843034e-11
6.03024080941e-12
8.90123195382e-11
4.90826035919e-12
8.5008576636e-11
4.00373860678e-12
8.17472959155e-11
3.26127652768e-12
7.91056414078e-11
2.64165042859e-12
7.69892624001e-11
2.11637504273e-12
7.53249812815e-11
1.6642772896e-12
7.40556994563e-11
1.26927814024e-12
7.31367759755e-11
9.18919971357e-13
7.25334069159e-11
6.03365740768e-13
7.22186997483e-11
3.14704079506e-13
7.21722396352e-11
4.64572784042e-14
7.23790102939e-11
-2.06773190736e-13
7.28285723487e-11
-4.4956425358e-13
7.35144325849e-11
-6.85862042699e-13
7.44335565834e-11
-9.19125372701e-13
7.55859867944e-11
-1.152431084e-12
7.69745364253e-11
-1.38854995177e-12
7.86045351947e-11
-1.62999845911e-12
8.04836055352e-11
-1.87906933648e-12
8.26214492922e-11
-2.13784197058e-12
8.50296244704e-11
-2.40817253512e-12
8.77212906907e-11
-2.69166262427e-12
9.07108998629e-11
-2.98960453885e-12
9.4013806669e-11
-3.30290103552e-12
9.76457713757e-11
-3.63195770755e-12
1.01622326983e-10
-3.97654728375e-12
1.05957984246e-10
-4.33564752044e-12
1.10665253709e-10
-4.70725821934e-12
1.15753475124e-10
-5.08820858041e-12
1.21227463099e-10
-5.4739734851e-12
1.27086005125e-10
-5.85852580101e-12
1.33320283129e-10
-6.23426000718e-12
1.39912330671e-10
-6.59202770788e-12
1.46833676919e-10
-6.92132457466e-12
1.54044356943e-10
-7.21065646822e-12
1.61492468987e-10
-7.44808666077e-12
1.69114420637e-10
-7.62192444761e-12
1.76835912637e-10
-7.72146313228e-12
1.84573569498e-10
-7.73762643184e-12
1.92236967116e-10
-7.6633659374e-12
1.99730701585e-10
-7.49370178648e-12
2.06956163072e-10
-7.22542830543e-12
2.13812862225e-10
-6.85666588763e-12
2.20199416044e-10
-6.38652117299e-12
2.26014491236e-10
-5.81504374353e-12
2.31158053753e-10
-5.14353317296e-12
2.3553331891e-10
-4.37523866342e-12
2.39049896156e-10
-3.51655468714e-12
2.41628494457e-10
-2.57858049452e-12
2.43206837741e-10
-1.57833128667e-12
2.43745498424e-10
-5.38655086784e-13
2.43232026623e-10
5.1347034187e-13
2.41682283452e-10
1.54973465121e-12
2.39138686296e-10
2.54358158806e-12
2.35665730568e-10
3.47293374325e-12
2.31343884e-10
4.321818659e-12
2.26263459637e-10
5.08039142858e-12
2.20519781272e-10
5.74364100436e-12
2.14210034029e-10
6.30970634564e-12
2.07431451707e-10
6.77853846149e-12
2.00280344594e-10
7.15106111836e-12
1.92851563299e-10
7.42873371997e-12
1.85238016022e-10
7.6134989147e-12
1.77529865434e-10
7.70810197651e-12
1.69813201486e-10
7.71661579545e-12
1.62168262789e-10
7.64489143807e-12
1.54667508677e-10
7.50070828871e-12
1.47373909295e-10
7.29355527383e-12
1.40339747754e-10
7.03411950433e-12
1.33606081338e-10
6.73362658386e-12
1.27202868103e-10
6.40317580518e-12
1.21149659357e-10
6.05317373216e-12
1.15456705133e-10
5.69292169773e-12
1.1012630441e-10
5.33037060987e-12
1.05154248922e-10
4.97202777082e-12
1.00531239354e-10
4.62298411365e-12
9.62441907394e-11
4.28702534726e-12
9.22773770901e-11
3.96679240601e-12
8.86133946811e-11
3.66396308621e-12
8.52339429522e-11
3.37943415696e-12
8.21204363086e-11
3.11349071376e-12
7.92544665196e-11
2.8659553404e-12
7.6618139197e-11
2.63631425513e-12
7.41943069663e-11
2.42382039964e-12
7.19667209337e-11
2.22757535241e-12
6.99201186111e-11
2.04659266584e-12
6.80402642386e-11
1.8798456695e-12
6.63139538241e-11
1.72630255278e-12
6.47289953245e-11
1.5849514248e-12
6.32741713934e-11
1.45481754312e-12
6.19391909585e-11
1.33497469314e-12
6.07146335705e-11
1.22455220238e-12
5.95918899691e-11
1.12273894378e-12
5.85631004802e-11
1.0287852774e-12
5.76210928264e-11
9.42003871777e-13
5.67593193548e-11
8.61770044225e-13
5.59717938986e-11
7.87522377774e-13
5.52530269252e-11
7.18764174958e-13
5.45979578417e-11
6.5506657045e-13
5.40018814826e-11
5.96074068273e-13
5.34603656792e-11
5.4151375069e-13
5.29691541799e-11
4.91209627624e-13
5.25240479755e-11
4.45104539972e-13
5.21207535072e-11
4.03292958286e-13
5.17546819992e-11
3.66070186089e-13
5.14206743387e-11
3.34006473428e-13
5.11126129437e-11
3.08060374694e-13
5.08228570019e-11
2.89755020637e-13
5.05413988063e-11
2.81457382013e-13
5.02545730974e-11
2.86824893009e-13
4.99430640112e-11
3.11508223814e-13
4.95789057453e-11
3.64157203642e-13
4.91216669186e-11
4.57237562782e-13
4.85172225886e-11
6.04443153491e-13
7.76010423638e-13
9.53353057664e-10
2.28778577026e-10
8.59557593764e-10
2.93210467367e-10
7.45059369573e-10
2.43249113702e-10
6.42019053602e-10
1.85588254817e-10
5.57061395179e-10
1.39504013793e-10
4.8897438321e-10
1.05583608946e-10
4.34724633137e-10
8.10471371948e-11
3.9134899762e-10
6.31929444373e-11
3.56425490359e-10
4.99998395844e-11
3.28091337726e-10
4.00652539219e-11
3.0494302388e-10
3.24366539342e-11
2.85926289765e-10
2.64668549124e-11
2.70245166074e-10
2.17113553079e-11
2.57293429771e-10
1.78599876384e-11
2.46604786597e-10
1.46923729284e-11
2.37817097455e-10
1.20489569912e-11
2.30646697364e-10
9.812042033e-12
2.24869852645e-10
7.89321148564e-12
2.20309252831e-10
6.22486907117e-12
2.16824068497e-10
4.7544547164e-12
2.14302555181e-10
3.44042585182e-12
2.12656493351e-10
2.24942049994e-12
2.11816966915e-10
1.15422387161e-12
2.11731127758e-10
1.32290274072e-13
2.1235969374e-10
-8.35344775323e-13
2.13674993979e-10
-1.76486946221e-12
2.15659427842e-10
-2.67030015282e-12
2.18304235374e-10
-3.56393633849e-12
2.21608496922e-10
-4.45669514111e-12
2.25578295602e-10
-5.35835010872e-12
2.30225986272e-10
-6.27768944343e-12
2.3556951992e-10
-7.22260200588e-12
2.41631774953e-10
-8.20009458542e-12
2.48439846565e-10
-9.2162401382e-12
2.56024243809e-10
-1.02760541063e-11
2.64417941273e-10
-1.13832943191e-11
2.7365522996e-10
-1.25401799454e-11
2.83770311087e-10
-1.37470267843e-11
2.94795579138e-10
-1.50018008395e-11
3.06759548998e-10
-1.62996002625e-11
3.19684399034e-10
-1.76320883491e-11
3.3358313088e-10
-1.89869175655e-11
3.48456389461e-10
-2.03472061088e-11
3.64289044848e-10
-2.16911519853e-11
3.81046707834e-10
-2.29918904427e-11
3.98672427625e-10
-2.42177114916e-11
4.17083887751e-10
-2.53327451998e-11
4.36171457187e-10
-2.6298182885e-11
4.55797440469e-10
-2.70740234989e-11
4.7579678182e-10
-2.76212160655e-11
4.9597929695e-10
-2.79039255569e-11
5.16133249137e-10
-2.78915233386e-11
5.36029808304e-10
-2.7559867882e-11
5.55427751171e-10
-2.6891586215e-11
5.74077803779e-10
-2.58754222477e-11
5.91726353071e-10
-2.45051573464e-11
6.08118721575e-10
-2.27788340123e-11
6.23002544197e-10
-2.06988142647e-11
6.36131866274e-10
-1.82728083862e-11
6.47272604101e-10
-1.55159365358e-11
6.56210119949e-10
-1.24540393315e-11
6.62759404883e-10
-9.12784459162e-12
6.66777110403e-10
-5.59602782933e-12
6.68173025447e-10
-1.93457391163e-12
6.66918065382e-10
1.76841341988e-12
6.63046823935e-10
5.42094624769e-12
6.5665416544e-10
8.93619814503e-12
6.47886518359e-10
1.2240528131e-11
6.36929837661e-10
1.52784372995e-11
6.23997150529e-10
1.80130087172e-11
6.09318135953e-10
2.04225793394e-11
5.93131573165e-10
2.249618795e-11
5.75680192179e-10
2.42298345666e-11
5.57207162799e-10
2.56240032479e-11
5.37953554051e-10
2.6682253992e-11
5.1815607139e-10
2.7410893096e-11
4.98044385564e-10
2.78197003323e-11
4.77837676682e-10
2.79232392211e-11
4.57740517993e-10
2.77419674213e-11
4.37938630669e-10
2.73025163394e-11
4.18595167777e-10
2.66369427453e-11
3.99848065563e-10
2.57811505289e-11
3.81808749387e-10
2.47728759564e-11
3.64562225803e-10
2.36496371074e-11
3.48168391797e-10
2.2446949936e-11
3.32664276569e-10
2.11969835608e-11
3.18066888261e-10
1.99277098125e-11
3.04376355208e-10
1.8662515818e-11
2.91579100951e-10
1.74201972072e-11
2.79650859791e-10
1.62152289646e-11
2.68559405484e-10
1.50582125026e-11
2.58266925086e-10
1.39564123697e-11
2.48732014592e-10
1.29143163525e-11
2.39911306167e-10
1.19341734309e-11
2.31760756232e-10
1.10164819089e-11
2.24236635279e-10
1.01604139873e-11
2.1729626353e-10
9.36417285955e-12
2.10898536573e-10
8.6252847881e-12
2.05004281073e-10
7.9408322316e-12
1.99576476467e-10
7.30763579728e-12
1.94580372631e-10
6.72239321125e-12
1.89983528931e-10
6.18178314277e-12
1.85755794577e-10
5.68254098035e-12
1.81869246616e-10
5.22151271635e-12
1.78298097548e-10
4.79569220163e-12
1.75018582086e-10
4.40224613978e-12
1.72008829289e-10
4.03853051441e-12
1.69248724754e-10
3.70210150317e-12
1.66719764896e-10
3.3907235742e-12
1.64404904368e-10
3.10237711662e-12
1.62288395289e-10
2.83526793787e-12
1.60355616055e-10
2.58784094008e-12
1.58592884996e-10
2.35880065877e-12
1.56987252923e-10
2.14714174659e-12
1.55526265419e-10
1.95219340144e-12
1.54197683786e-10
1.77368279525e-12
1.5298914934e-10
1.61182434109e-12
1.51887773065e-10
1.46744371803e-12
1.50879628633e-10
1.34214843265e-12
1.49949127598e-10
1.23855919132e-12
1.49078263824e-10
1.16061674337e-12
1.48245750328e-10
1.11396893725e-12
1.47426173918e-10
1.10639936191e-12
1.46589571866e-10
1.14810832671e-12
1.45702569501e-10
1.25115768136e-12
1.44734028953e-10
1.4257764007e-12
1.43673968395e-10
1.66450221106e-12
1.88457859623e-12
9.76213056241e-10
1.90065516384e-10
9.63018844323e-10
3.06404670277e-10
9.06262329e-10
3.00005619821e-10
8.34116977951e-10
2.57733596399e-10
7.61575243019e-10
2.12045738792e-10
6.95040923026e-10
1.7211791872e-10
6.36575772047e-10
1.39512277867e-10
5.86275768174e-10
1.1349293804e-10
5.43450877338e-10
9.2824720253e-11
5.07174582425e-10
7.63415387923e-11
4.7652245298e-10
6.30887734692e-11
4.50663761875e-10
5.23255362243e-11
4.28886697732e-10
4.34884097726e-11
4.10595573239e-10
3.61511025537e-11
3.95297785145e-10
2.9990151552e-11
3.82588388133e-10
2.47583446386e-11
3.72135504323e-10
2.0264916604e-11
3.63667675006e-10
1.63610316971e-11
3.56963342384e-10
1.29291927558e-11
3.51842285028e-10
9.87550331932e-12
3.48158716957e-10
7.12398540194e-12
3.45795751974e-10
4.61237721867e-12
3.44660967225e-10
2.28900067063e-12
3.44682842017e-10
1.10407883049e-13
3.45807888586e-10
-1.96039852168e-12
3.47998323727e-10
-3.95531131071e-12
3.51230167447e-10
-5.9021500262e-12
3.55491667203e-10
-7.82544162805e-12
3.60781963696e-10
-9.74699644935e-12
3.67109925311e-10
-1.16863157373e-11
3.74493085368e-10
-1.36608525958e-11
3.82956619517e-10
-1.56861382279e-11
3.92532301736e-10
-1.77757777232e-11
4.0325737596e-10
-1.99413140016e-11
4.15173278217e-10
-2.21919545751e-11
4.28324141269e-10
-2.45341540093e-11
4.4275501226e-10
-2.69710458453e-11
4.58509714835e-10
-2.95017223778e-11
4.75628293336e-10
-3.21203703094e-11
4.94143990658e-10
-3.48152863357e-11
5.1407973638e-10
-3.75678204557e-11
5.35444161456e-10
-4.0351326487e-11
5.58227211996e-10
-4.31302378251e-11
5.82395508921e-10
-4.58594272529e-11
6.078876878e-10
-4.84840447308e-11
6.3461004673e-10
-5.09400427518e-11
6.62432911053e-10
-5.31555787346e-11
6.91188170895e-10
-5.50534087292e-11
7.20668428502e-10
-5.65542439836e-11
7.5062808266e-10
-5.75808300122e-11
7.8078645486e-10
-5.80622547548e-11
8.1083274367e-10
-5.7937766615e-11
8.40432237969e-10
-5.71593147139e-11
8.69232971226e-10
-5.56922706186e-11
8.96872029624e-10
-5.35144313419e-11
9.22981144172e-10
-5.06142229856e-11
9.47191826817e-10
-4.69894694261e-11
9.69140751023e-10
-4.26476940712e-11
9.88476072572e-10
-3.76080900112e-11
1.00486530555e-09
-3.19051355156e-11
1.01800562594e-09
-2.55943335214e-11
1.02763741131e-09
-1.87596130117e-11
1.03356019932e-09
-1.15188097271e-11
1.03564782832e-09
-4.02220839042e-12
1.03385882361e-09
3.55740048168e-12
1.0282396632e-09
1.10400773198e-11
1.01892040548e-09
1.8255415537e-11
1.0061034104e-09
2.50574733632e-11
9.90047526827e-10
3.13342628058e-11
9.71051627543e-10
3.70088433737e-11
9.49440794982e-10
4.20333419458e-11
9.25556082683e-10
4.63808264142e-11
8.99747062571e-10
5.00387779967e-11
8.72366258478e-10
5.30047290617e-11
8.43764827117e-10
5.52836063886e-11
8.14288707971e-10
5.68869337186e-11
7.84274352513e-10
5.78339785193e-11
7.54043534248e-10
5.81539823821e-11
7.23897420164e-10
5.78880091403e-11
6.9411060911e-10
5.70892583733e-11
6.64925979017e-10
5.58215074568e-11
6.36551009172e-10
5.41560589582e-11
6.09155920916e-10
5.216790683e-11
5.82873663123e-10
4.99318416555e-11
5.57801523773e-10
4.75190400822e-11
5.34004006201e-10
4.49944559121e-11
5.11516553269e-10
4.24151212942e-11
4.90349720053e-10
3.98293111949e-11
4.70493453952e-10
3.72764288053e-11
4.51921222624e-10
3.47874289145e-11
4.34593811569e-10
3.23855950155e-11
4.18462688033e-10
3.00875099781e-11
4.03472886083e-10
2.79040947182e-11
3.89565411991e-10
2.58416260824e-11
3.7667919707e-10
2.39026772959e-11
3.64752642854e-10
2.20869504129e-11
3.53724810667e-10
2.0391988799e-11
3.43536310064e-10
1.88137705584e-11
3.34129937452e-10
1.73471912583e-11
3.25451112245e-10
1.59864485733e-11
3.17448151265e-10
1.47253427722e-11
3.10072416773e-10
1.35575071596e-11
3.03278366711e-10
1.247658139e-11
2.97023531131e-10
1.14763394194e-11
2.91268433046e-10
1.05507820791e-11
2.85976468584e-10
9.69420303558e-12
2.81113756757e-10
8.90123532117e-12
2.76648966976e-10
8.16688479761e-12
2.72553128731e-10
7.4865557804e-12
2.68799426518e-10
6.85607374099e-12
2.65362979889e-10
6.27170935359e-12
2.62220607642e-10
5.73020836294e-12
2.59350572232e-10
5.2288315702e-12
2.56732299897e-10
4.76540993793e-12
2.54346069413e-10
4.33842003803e-12
2.52172662626e-10
3.9470860752e-12
2.50192968887e-10
3.59151485891e-12
2.48387539482e-10
3.27287023258e-12
2.46736094509e-10
2.99359077964e-12
2.45217003781e-10
2.75764758021e-12
2.43806799533e-10
2.57081882293e-12
2.42479856065e-10
2.44091036553e-12
2.41208518438e-10
2.377734895e-12
2.39964244643e-10
2.39237993223e-12
2.3872080906e-10
2.49459118005e-12
2.37461362777e-10
2.68522090914e-12
2.36189896446e-10
2.93596729767e-12
3.14064588604e-12
9.7179720613e-10
1.55768306174e-10
9.86831714e-10
2.91370153032e-10
9.68555106174e-10
3.18282218266e-10
9.28588361467e-10
2.97700331127e-10
8.78782889309e-10
2.61851200355e-10
8.26654746899e-10
2.24246050188e-10
7.763469825e-10
1.89820031184e-10
7.29886386032e-10
1.59953523399e-10
6.88081594811e-10
1.34629500392e-10
6.51080178952e-10
1.13342943611e-10
6.18694521012e-10
9.54744204086e-11
5.90585521126e-10
8.04345251375e-11
5.66362729051e-10
6.77111908926e-11
5.45636654415e-10
5.68771662421e-11
5.2804428993e-10
4.7582505093e-11
5.13259963767e-10
3.95426598604e-11
5.00998395964e-10
3.25264734749e-11
4.91013806997e-10
2.63456097476e-11
4.83097198875e-10
2.08457899896e-11
4.77072951336e-10
1.58997400111e-11
4.72795327347e-10
1.14015986039e-11
4.70145177494e-10
7.26251636494e-12
4.69026966298e-10
3.40720126388e-12
4.69366154069e-10
-2.28790360238e-13
4.71106919294e-10
-3.70117405528e-12
4.74210184267e-10
-7.05858639256e-12
4.78651907001e-10
-1.03438826243e-11
4.84421581131e-10
-1.35951253318e-11
4.91520891849e-10
-1.68463163915e-11
4.99962474108e-10
-2.01279068073e-11
5.09768717959e-10
-2.34671047683e-11
5.20970563502e-10
-2.68879915208e-11
5.33606224954e-10
-3.0411446258e-11
5.47719779429e-10
-3.40548747822e-11
5.63359552057e-10
-3.78317326151e-11
5.80576225587e-10
-4.17508319242e-11
5.9942060093e-10
-4.58154244038e-11
6.19940936995e-10
-5.0022060334e-11
6.42179805899e-10
-5.43592396173e-11
6.66170416197e-10
-5.88058953743e-11
6.91932385538e-10
-6.33297866993e-11
7.19466988749e-10
-6.78859245714e-11
7.48751970278e-10
-7.24152120191e-11
7.79736092522e-10
-7.68435397568e-11
8.12333689893e-10
-8.10816297818e-11
8.46419604386e-10
-8.50259421603e-11
8.81824973341e-10
-8.85609296975e-11
9.18334399608e-10
-9.15628139614e-11
9.55685023988e-10
-9.39048442305e-11
9.93567907161e-10
-9.54636859389e-11
1.03163188457e-09
-9.61262019188e-11
1.0694896846e-09
-9.57955336071e-11
1.10672565283e-09
-9.43952474929e-11
1.1429040652e-09
-9.18706455841e-11
1.17757699404e-09
-8.81873215054e-11
1.21029121334e-09
-8.33284031132e-11
1.24059450605e-09
-7.72927234631e-11
1.26804231131e-09
-7.00954622907e-11
1.29220544192e-09
-6.17711865958e-11
1.3126792782e-09
-5.23789423657e-11
1.32909547365e-09
-4.20105059024e-11
1.34113778053e-09
-3.08019049283e-11
1.34856149778e-09
-1.89425217363e-11
1.351212169e-09
-6.67288522095e-12
1.34903817763e-09
5.73137488011e-12
1.34209459051e-09
1.7983636394e-11
1.33053798788e-09
2.98119800189e-11
1.31461288845e-09
4.09825260335e-11
1.29463237704e-09
5.13147205311e-11
1.27095813716e-09
6.06830242737e-11
1.24398435091e-09
6.9007065347e-11
1.21412611932e-09
7.62389925327e-11
1.18181078328e-09
8.23540470086e-11
1.14747105807e-09
8.73443866188e-11
1.11153958275e-09
9.12150142493e-11
1.07444408756e-09
9.39823624733e-11
1.03660201244e-09
9.5675988946e-11
9.98413913913e-10
9.63420186074e-11
9.60255948134e-10
9.60459154929e-11
9.22472381374e-10
9.48727689623e-11
8.85369186636e-10
9.29246494898e-11
8.49209503733e-10
9.03156927777e-11
8.14211325134e-10
8.71660399819e-11
7.80547394326e-10
8.35957306393e-11
7.48347032515e-10
7.97193635692e-11
7.17699457744e-10
7.56419957264e-11
6.88658108943e-10
7.14564382891e-11
6.61245512969e-10
6.72418783093e-11
6.35458303178e-10
6.30636124202e-11
6.11272090661e-10
5.89736177054e-11
5.88645981737e-10
5.50116824003e-11
5.67526618414e-10
5.12068537229e-11
5.47851684192e-10
4.7579011087e-11
5.29552866941e-10
4.41404270135e-11
5.12558303209e-10
4.08972260473e-11
4.96794548878e-10
3.78506909538e-11
4.82188130925e-10
3.4998394001e-11
4.68666738723e-10
3.23351509391e-11
4.56160111515e-10
2.98538074609e-11
4.44600674902e-10
2.75458749191e-11
4.33923973087e-10
2.54020349726e-11
4.24068937735e-10
2.34125334929e-11
4.14978027654e-10
2.15674829853e-11
4.06597267943e-10
1.98570911365e-11
3.98876211544e-10
1.82718309273e-11
3.91767841681e-10
1.68025657633e-11
3.85228429183e-10
1.54406410597e-11
3.79217355434e-10
1.41779521471e-11
3.73696908222e-10
1.30069969208e-11
3.68632055511e-10
1.19209207001e-11
3.63990199462e-10
1.09135599484e-11
3.59740911553e-10
9.97949111529e-12
3.55855647697e-10
9.11409055241e-12
3.52307441648e-10
8.31361140763e-12
3.4907057421e-10
7.57528318324e-12
3.46120217096e-10
6.89743920394e-12
3.43432052571e-10
6.27967570403e-12
3.40981876725e-10
5.72304272619e-12
3.38745205501e-10
5.23025896946e-12
3.36696924465e-10
4.80592590677e-12
3.34811059359e-10
4.45668150127e-12
3.33060805476e-10
4.19116205891e-12
3.31419046831e-10
4.01949149085e-12
3.29859722054e-10
3.95170272268e-12
3.28360492828e-10
3.99381841735e-12
3.2690681628e-10
4.13889568034e-12
3.25494878461e-10
4.3479037651e-12
4.51608812407e-12
9.64034497765e-10
1.29233803526e-10
9.88038558627e-10
2.67366081595e-10
9.90528124764e-10
3.157926414e-10
9.73579757005e-10
3.14648687912e-10
9.4412755829e-10
2.91303387579e-10
9.08204742661e-10
2.60168853988e-10
8.69993605462e-10
2.28031156397e-10
8.32130627553e-10
1.97816489261e-10
7.9616371297e-10
1.7059640291e-10
7.62926138545e-10
1.46580505958e-10
7.32801273509e-10
1.25599273349e-10
7.05899359684e-10
1.07336426829e-10
6.82171938955e-10
9.14385994409e-11
6.61484359758e-10
7.75647331956e-11
6.43660867437e-10
6.54059851037e-11
6.28512068279e-10
5.46914466334e-11
6.15851203362e-10
4.51873259353e-11
6.05503398176e-10
3.66934024043e-11
5.97310557104e-10
2.90386184651e-11
5.91133599378e-10
2.20766850749e-11
5.86853107318e-10
1.56820779481e-11
5.84369056985e-10
9.74655393178e-12
5.83600045953e-10
4.1761994939e-12
5.84482270162e-10
-1.11102739797e-12
5.8696839202e-10
-6.18730874853e-12
5.91026386524e-10
-1.11165937202e-11
5.96638410094e-10
-1.59559189797e-11
6.03799692868e-10
-2.07564208236e-11
6.12517447107e-10
-2.55640832396e-11
6.2280976923e-10
-3.04202413886e-11
6.34704502102e-10
-3.53618498889e-11
6.48238015157e-10
-4.0421516549e-11
6.63453852054e-10
-4.56272947735e-11
6.80401188277e-10
-5.10022221778e-11
6.99133034626e-10
-5.65635895835e-11
7.19704117411e-10
-6.2321924653e-11
7.42168363324e-10
-6.82796794489e-11
7.66575918103e-10
-7.44296232801e-11
7.92969635278e-10
-8.07529638293e-11
8.21380987656e-10
-8.72172534756e-11
8.51825383026e-10
-9.37741862918e-11
8.84296911132e-10
-1.00357455188e-10
9.18762614284e-10
-1.06880915767e-10
9.55156461659e-10
-1.13237385587e-10
9.93373314633e-10
-1.19298478859e-10
1.03326329031e-09
-1.24915911359e-10
1.07462704436e-09
-1.29924674489e-10
1.11721257592e-09
-1.34148333303e-10
1.16071416818e-09
-1.37406421174e-10
1.20477397652e-09
-1.39523475781e-10
1.24898652006e-09
-1.40338723821e-10
1.29290589964e-09
-1.39714888493e-10
1.33605499087e-09
-1.37544311261e-10
1.3779353245e-09
-1.33750949349e-10
1.41803623648e-09
-1.28288201765e-10
1.45584253506e-09
-1.21134668758e-10
1.49084122957e-09
-1.12291384709e-10
1.52252871495e-09
-1.01782915111e-10
1.5504192066e-09
-8.96616477449e-11
1.57405432208e-09
-7.60140309992e-11
1.593014991e-09
-6.09711535402e-11
1.60693891228e-09
-4.47258124265e-11
1.61554398466e-09
-2.75475896961e-11
1.61865142853e-09
-9.78033534996e-12
1.61620085104e-09
8.18193482215e-12
1.60825456025e-09
2.59298987268e-11
1.59499161531e-09
4.30748867462e-11
1.57669171988e-09
5.92823753081e-11
1.55371150594e-09
7.42948822587e-11
1.52646061128e-09
8.79338625105e-11
1.49538397012e-09
1.00083647353e-10
1.4609501293e-09
1.10672772709e-10
1.42364228241e-09
1.19661832673e-10
1.38395074879e-09
1.27035859243e-10
1.3423670854e-09
1.32798617495e-10
1.29937901486e-09
1.36970374382e-10
1.25546448805e-09
1.39590459217e-10
1.21108395095e-09
1.40722501772e-10
1.16667130142e-09
1.40458514058e-10
1.12262487686e-09
1.38919145769e-10
1.07929983195e-09
1.36249649974e-10
1.03700280851e-09
1.32612675198e-10
9.95989252877e-10
1.28179557948e-10
9.56463294858e-10
1.23121654278e-10
9.18579811362e-10
1.17602815825e-10
8.8244814994e-10
1.11773628877e-10
8.48136951232e-10
1.05767611475e-10
8.15679553451e-10
9.96992530895e-11
7.85079550928e-10
9.36635942086e-11
7.56316185442e-10
8.77369644772e-11
7.29349352093e-10
8.1978498805e-11
7.04124090617e-10
7.64320997964e-11
6.80574502557e-10
7.11285850695e-11
6.58627085621e-10
6.60878310103e-11
6.38203510339e-10
6.13207893586e-11
6.19222884959e-10
5.68313051938e-11
6.01603564968e-10
5.2617703558e-11
5.85264567412e-10
4.86741386751e-11
5.70126648899e-10
4.49917166803e-11
5.56113102468e-10
4.1559412524e-11
5.43150322757e-10
3.8364806265e-11
5.31168182992e-10
3.53946652113e-11
5.20100260828e-10
3.26353974342e-11
5.0988394436e-10
3.00734002001e-11
5.00460443909e-10
2.76953242572e-11
4.91774730508e-10
2.54882723172e-11
4.83775417482e-10
2.34399474914e-11
4.76414598013e-10
2.15387652733e-11
4.69647648135e-10
1.9773940694e-11
4.63433002159e-10
1.8135560815e-11
4.5773190504e-10
1.66146514397e-11
4.52508144705e-10
1.52032460714e-11
4.47727765813e-10
1.38944643099e-11
4.43358766131e-10
1.26826062208e-11
4.39370776595e-10
1.15632681217e-11
4.35734727911e-10
1.05334835907e-11
4.32422509502e-10
9.59189012584e-12
4.29406632903e-10
8.73891568046e-12
4.26659921366e-10
7.97696720685e-12
4.24155263479e-10
7.31058085804e-12
4.21865491425e-10
6.74645095518e-12
4.19763476225e-10
6.29317496113e-12
4.17822565734e-10
5.96039989463e-12
4.16017499394e-10
5.75676711182e-12
4.1432579933e-10
5.68551663792e-12
4.12728956311e-10
5.73573699074e-12
4.11210259609e-10
5.86659910281e-12
5.98492797216e-12
9.576901886e-10
1.09043609937e-10
9.830533376e-10
2.42002921317e-10
9.96099015351e-10
3.02746952429e-10
9.9406464149e-10
3.16683049968e-10
9.8008275008e-10
3.05285266557e-10
9.5824383041e-10
2.82007760881e-10
9.31990134668e-10
2.54284839213e-10
9.03847332771e-10
2.25959278176e-10
8.75547877108e-10
1.98895845558e-10
8.48224114352e-10
1.7390425566e-10
8.22580330534e-10
1.51243044055e-10
7.99025706193e-10
1.30891037977e-10
7.77771268731e-10
1.1269302361e-10
7.58898528848e-10
9.64374596688e-11
7.42407199237e-10
8.18973011763e-11
7.2824793081e-10
6.88507013859e-11
7.16344505689e-10
5.70907372391e-11
7.066086958e-10
4.642919833e-11
6.9895006248e-10
3.66972376737e-11
6.93282291321e-10
2.77444419729e-11
6.89527169861e-10
1.94371849949e-11
6.87616972439e-10
1.16567367905e-11
6.8749577615e-10
4.29738107044e-12
6.89120064811e-10
-2.73533091759e-12
6.9245884974e-10
-9.52610867634e-12
6.97493482813e-10
-1.61512419215e-11
7.0421725652e-10
-2.26797079303e-11
7.12634843662e-10
-2.91740233045e-11
7.2276160776e-10
-3.56908627456e-11
7.34622791433e-10
-4.2281440502e-11
7.48252572198e-10
-4.89916460828e-11
7.63692960863e-10
-5.5861920572e-11
7.80992505616e-10
-6.29268547442e-11
8.00204754483e-10
-7.02144860357e-11
8.21386419786e-10
-7.77452695494e-11
8.44595180917e-10
-8.55306999975e-11
8.69887056902e-10
-9.35715690635e-11
8.97313279248e-10
-1.01855858512e-10
9.2691660043e-10
-1.10356296986e-10
9.58726987183e-10
-1.19027651097e-10
9.92756673969e-10
-1.27803882643e-10
1.0289945956e-09
-1.36595384854e-10
1.06740028311e-09
-1.45286609566e-10
1.10789739812e-09
-1.53734504881e-10
1.1503671974e-09
-1.61768280187e-10
1.19464235646e-09
-1.69191069957e-10
1.24050172052e-09
-1.75784035365e-10
1.28766666577e-09
-1.81313272368e-10
1.3357997978e-09
-1.85539543858e-10
1.384506638e-09
-1.88230303287e-10
1.43334068859e-09
-1.89172758309e-10
1.48181177128e-09
-1.88185951699e-10
1.52939679231e-09
-1.85129309561e-10
1.57555127692e-09
-1.79905408248e-10
1.61971966658e-09
-1.72456563154e-10
1.66134320946e-09
-1.62758181325e-10
1.69986629146e-09
-1.50814435124e-10
1.73474348585e-09
-1.36660077602e-10
1.76544829932e-09
-1.20366430363e-10
1.79148235448e-09
-1.02048058111e-10
1.81238605169e-09
-8.18748276838e-11
1.82775696831e-09
-6.00967133957e-11
1.83727858173e-09
-3.70691972233e-11
1.84074958685e-09
-1.32513462125e-11
1.83810179394e-09
1.08297095117e-11
1.82940458757e-09
3.46270747544e-11
1.81485830611e-09
5.76211273298e-11
1.79477523811e-09
7.93653941513e-11
1.76954989116e-09
9.9520174352e-11
1.73962982794e-09
1.1785386743e-10
1.70549705245e-09
1.34216362942e-10
1.66765774638e-09
1.48512018565e-10
1.62663383298e-09
1.60685686477e-10
1.58295516941e-09
1.70714464495e-10
1.53715388007e-09
1.78599850229e-10
1.48975990863e-09
1.84364291415e-10
1.44129511978e-09
1.88055196309e-10
1.39226458844e-09
1.8975298438e-10
1.34314593358e-09
1.89577123448e-10
1.29437865204e-09
1.876863852e-10
1.24635522522e-09
1.84273038069e-10
1.19941503537e-09
1.79552829666e-10
1.15384140587e-09
1.73753155299e-10
1.109861566e-09
1.67101465122e-10
1.06764903797e-09
1.59815317756e-10
1.02732781068e-09
1.52094832816e-10
9.88977654885e-10
1.44117746421e-10
9.52640007797e-10
1.36036881599e-10
9.18323969448e-10
1.2797961598e-10
8.86012078859e-10
1.20048840246e-10
8.55665652613e-10
1.12324911728e-10
8.27229563243e-10
1.04868177118e-10
8.00636405815e-10
9.77217315023e-11
7.75810051359e-10
9.09141753474e-11
7.5266861789e-10
8.44622134145e-11
7.31126908958e-10
7.83730052947e-11
7.11098378643e-10
7.26462255059e-11
6.92496684795e-10
6.72758245419e-11
6.75236890426e-10
6.22515033772e-11
6.59236369201e-10
5.75599263421e-11
6.44415465185e-10
5.31857030948e-11
6.30697951117e-10
4.91121722906e-11
6.18011323165e-10
4.53220185708e-11
6.06286964436e-10
4.17977522809e-11
5.95460204001e-10
3.85220781955e-11
5.85470293551e-10
3.5478176426e-11
5.76260319362e-10
3.26499154876e-11
5.67777063796e-10
3.00220148056e-11
5.59970827203e-10
2.75801714096e-11
5.52795218693e-10
2.53111636185e-11
5.46206921873e-10
2.32029427298e-11
5.40165440201e-10
2.12447224072e-11
5.34632825289e-10
1.94270740892e-11
5.29573391107e-10
1.7742035502e-11
5.24953417046e-10
1.6183237529e-11
5.20740844157e-10
1.47460521078e-11
5.16904971023e-10
1.34277591928e-11
5.1341616001e-10
1.22277229681e-11
5.10245570507e-10
1.11475533452e-11
5.07364944382e-10
1.01912040029e-11
5.04746478621e-10
9.36491410827e-12
5.0236282826e-10
8.67682305356e-12
5.00187275675e-10
8.13595045348e-12
4.98194041714e-10
7.74999915983e-12
4.96358484713e-10
7.52107177657e-12
4.9465623506e-10
7.43798490784e-12
4.93058718028e-10
7.46411473614e-12
7.52274294824e-12
9.5311003722e-10
9.3433566781e-11
9.77115278135e-10
2.1799766792e-10
9.95107096794e-10
2.84755121253e-10
1.00234120848e-09
3.0944892558e-10
9.99425633517e-10
3.08200828328e-10
9.88754470756e-10
2.92678910164e-10
9.7285773413e-10
2.70181562244e-10
9.53858419382e-10
2.44958579285e-10
9.333804981e-10
2.19373753172e-10
9.12605812844e-10
1.94678927203e-10
8.92364837004e-10
1.71484006109e-10
8.73222668536e-10
1.50033192558e-10
8.55549881379e-10
1.30365796755e-10
8.39577593405e-10
1.12409733487e-10
8.25439020521e-10
9.6035859745e-11
8.13200293033e-10
8.10894143898e-11
8.02883039928e-10
6.74079756813e-11
7.94480785516e-10
5.48314378957e-11
7.87970751627e-10
4.32072565269e-11
7.83322276638e-10
3.23929017322e-11
7.80502758274e-10
2.22566879296e-11
7.79481792097e-10
1.26776873342e-11
7.80233998893e-10
3.54515843747e-12
7.82740900592e-10
-5.24224866075e-12
7.86992090721e-10
-1.37773150537e-11
7.9298591304e-10
-2.21450806885e-11
8.00729755035e-10
-3.0423566563e-11
8.10240042295e-10
-3.86843273779e-11
8.21541987807e-10
-4.69928252252e-11
8.34669123728e-10
-5.54085935133e-11
8.49662622461e-10
-6.39851619883e-11
8.66570396865e-10
-7.27697121773e-11
8.85445954885e-10
-8.18024299276e-11
9.06346971258e-10
-9.11155194529e-11
9.2933352777e-10
-1.00731842884e-10
9.54465964042e-10
-1.10663152756e-10
9.81802273499e-10
-1.20907894531e-10
1.01139497516e-09
-1.31448575554e-10
1.04328739314e-09
-1.42248729545e-10
1.07750928515e-09
-1.53249556685e-10
1.11407178276e-09
-1.64366392634e-10
1.15296164556e-09
-1.75485258619e-10
1.19413489415e-09
-1.8645986747e-10
1.23750998021e-09
-1.97109598342e-10
1.28296077845e-09
-2.07219083684e-10
1.33030984305e-09
-2.16540137381e-10
1.37932254376e-09
-2.24796736207e-10