/*--------------------------------*- C++ -*----------------------------------*\
  =========                 |
  \\      /  F ield         | OpenFOAM: The Open Source CFD Toolbox
   \\    /   O peration     | Website:  https://openfoam.org
    \\  /    A nd           | Version:  7
     \\/     M anipulation  |
\*---------------------------------------------------------------------------*/
FoamFile
{
    version     2.0;
    format      ascii;
    class       volVectorField;
    location    "120";
    object      U;
}
// * * * * * * * * * * * * * * * * * * * * * * * * * * * * * * * * * * * * * //

dimensions      [0 1 -1 0 0 0 0];

internalField   nonuniform List<vector> 
8192
(
(0.00104343575133 0.000156564248671 0)
(0.000759245892229 0.000127625607523 0)
(0.000549219704266 8.24005747145e-05 0)
(0.000413988437225 5.28306866924e-05 0)
(0.000326248071026 3.4909673664e-05 0)
(0.000267340562636 2.39978285055e-05 0)
(0.000226192393416 1.71503342573e-05 0)
(0.000196358968468 1.26830841661e-05 0)
(0.000174027018784 9.64885904808e-06 0)
(0.000156870242326 7.50791106647e-06 0)
(0.000143417781301 5.94454377299e-06 0)
(0.000132705148201 4.76808330747e-06 0)
(0.000124077704916 3.85935411802e-06 0)
(0.000117077058459 3.14128662988e-06 0)
(0.000111373373552 2.56239270834e-06 0)
(0.000106723758433 2.08721697772e-06 0)
(0.000102945879887 1.6906562743e-06 0)
(9.9900738437e-05 1.35448002734e-06 0)
(9.74811159562e-05 1.06513746535e-06 0)
(9.56036356722e-05 8.12338009754e-07 0)
(9.42031842764e-05 5.88108781669e-07 0)
(9.32289170504e-05 3.86154074091e-07 0)
(9.26413482651e-05 2.01410610884e-07 0)
(9.24102012055e-05 2.97326581787e-08 0)
(9.25127999546e-05 -1.32334842071e-07 0)
(9.29328528913e-05 -2.87721122291e-07 0)
(9.36595231575e-05 -4.38951707328e-07 0)
(9.46867130677e-05 -5.88240238529e-07 0)
(9.60125077617e-05 -7.3755589376e-07 0)
(9.76387348606e-05 -8.88671969134e-07 0)
(9.95706058368e-05 -1.04319901383e-06 0)
(0.000101816410067 -1.20260437535e-06 0)
(0.00010438723509 -1.36821886117e-06 0)
(0.000107296687208 -1.54123042248e-06 0)
(0.000110560585703 -1.72266407953e-06 0)
(0.000114196601954 -1.91334690486e-06 0)
(0.00011822381218 -2.11385666274e-06 0)
(0.000122662129949 -2.32445293283e-06 0)
(0.00012753158295 -2.5449902616e-06 0)
(0.000132851399187 -2.77481441308e-06 0)
(0.000138638872291 -3.01264526038e-06 0)
(0.000144907986453 -3.25645349146e-06 0)
(0.000151667800463 -3.50334303046e-06 0)
(0.000158920619664 -3.74945651264e-06 0)
(0.000166660024482 -3.98992640459e-06 0)
(0.000174868872832 -4.21889773304e-06 0)
(0.000183517444858 -4.42964772778e-06 0)
(0.000192561941672 -4.61482013966e-06 0)
(0.000201943568595 -4.76677546289e-06 0)
(0.000211588409359 -4.87803164647e-06 0)
(0.000221408213296 -4.94173640466e-06 0)
(0.000231302068567 -4.95208091637e-06 0)
(0.000241158743433 -4.90455419993e-06 0)
(0.000250859307969 -4.79596914335e-06 0)
(0.00026027959338 -4.62427411548e-06 0)
(0.00026929217619 -4.38826616809e-06 0)
(0.000277767858092 -4.08737355071e-06 0)
(0.000285576900659 -3.72162799586e-06 0)
(0.000292590428793 -3.2918612307e-06 0)
(0.000298682478504 -2.80015274459e-06 0)
(0.000303733257642 -2.25059499977e-06 0)
(0.000307634169992 -1.65029151649e-06 0)
(0.000310294612607 -1.01013202347e-06 0)
(0.000311649495145 -3.44739255542e-07 0)
(0.00031166561603 3.28621018797e-07 0)
(0.000310345158448 9.91830176775e-07 0)
(0.000307725420639 1.62789221636e-06 0)
(0.000303874826793 2.22267759568e-06 0)
(0.000298886153324 2.76596394176e-06 0)
(0.000292868699928 3.25145051429e-06 0)
(0.000285941274181 3.67593024279e-06 0)
(0.000278227081793 4.03821206121e-06 0)
(0.000269850550871 4.33826461536e-06 0)
(0.000260935549633 4.57667911575e-06 0)
(0.000251604421052 4.75438958078e-06 0)
(0.000241977330766 4.87263930541e-06 0)
(0.000232171444132 4.93318526497e-06 0)
(0.000222299562829 4.93863410909e-06 0)
(0.000212468137136 4.89273052037e-06 0)
(0.000202774893738 4.80045330478e-06 0)
(0.000193306507502 4.66787537525e-06 0)
(0.000184136740511 4.50183648277e-06 0)
(0.000175325330619 4.30952101367e-06 0)
(0.000166917727643 4.09803251532e-06 0)
(0.000158945617574 3.87403118858e-06 0)
(0.000151428073273 3.64346988655e-06 0)
(0.000144373126107 3.41143719032e-06 0)
(0.000137779554133 3.18209777332e-06 0)
(0.000131638712497 2.95870983273e-06 0)
(0.00012593627526 2.74369622224e-06 0)
(0.000120653803411 2.53874713985e-06 0)
(0.000115770093934 2.34493637517e-06 0)
(0.000111262296085 2.16283786046e-06 0)
(0.000107106802727 1.99263405681e-06 0)
(0.00010327993781 1.83421141785e-06 0)
(9.97584676586e-05 1.68724112328e-06 0)
(9.65199655445e-05 1.55124505577e-06 0)
(9.3543057856e-05 1.42564822554e-06 0)
(9.08075773087e-05 1.30981930614e-06 0)
(8.82946450238e-05 1.20310122848e-06 0)
(8.59866995601e-05 1.10483363378e-06 0)
(8.38674874551e-05 1.01436891187e-06 0)
(8.19220266995e-05 9.31083227599e-07 0)
(8.01365519052e-05 8.5438380361e-07 0)
(7.84984476986e-05 7.83713409521e-07 0)
(7.69961750653e-05 7.18552924016e-07 0)
(7.56191938875e-05 6.58422577536e-07 0)
(7.43578837162e-05 6.02882477937e-07 0)
(7.3203463796e-05 5.51532828304e-07 0)
(7.21479124822e-05 5.04014321775e-07 0)
(7.11838853272e-05 4.60009071973e-07 0)
(7.03046302508e-05 4.19242605088e-07 0)
(6.95038971675e-05 3.81487403695e-07 0)
(6.87758381836e-05 3.46568800442e-07 0)
(6.81148927099e-05 3.1437416168e-07 0)
(6.75156493795e-05 2.84866905582e-07 0)
(6.69726729489e-05 2.58107493303e-07 0)
(6.64802787241e-05 2.34284919097e-07 0)
(6.60322280562e-05 2.13764142994e-07 0)
(6.56213038607e-05 1.97158639804e-07 0)
(6.52387007652e-05 1.85443213208e-07 0)
(6.48731237172e-05 1.80132724489e-07 0)
(6.45094220183e-05 1.83567931526e-07 0)
(6.41264877495e-05 1.99365263241e-07 0)
(6.36940606442e-05 2.33060610331e-07 0)
(6.31683665049e-05 2.92632040181e-07 0)
(6.24888892846e-05 3.86843618234e-07 0)
(6.16053976634e-05 4.96646671128e-07 0)
(0.0012101459569 0.000302982537968 0)
(0.00116026281691 0.000315280306638 0)
(0.00102695485654 0.000238080007484 0)
(0.000887730190832 0.000171607169775 0)
(0.00076741148722 0.000124192242491 0)
(0.000669462898169 9.15713382309e-05 0)
(0.000591167370462 6.9020502062e-05 0)
(0.000528687123685 5.3126568606e-05 0)
(0.000478575672307 4.16487563821e-05 0)
(0.000438090769975 3.31496735765e-05 0)
(0.000405141991428 2.67040022909e-05 0)
(0.000378156360732 2.17068704514e-05 0)
(0.000355949731737 1.7754621515e-05 0)
(0.000337624701341 1.45716787185e-05 0)
(0.000322494858475 1.19655113825e-05 0)
(0.000310030005793 9.7985494521e-06 0)
(0.000299816828684 7.97036317541e-06 0)
(0.000291530592006 6.40613537815e-06 0)
(0.000284914627505 5.0490536709e-06 0)
(0.00027976532565 3.85518902825e-06 0)
(0.000275921039154 2.78998132683e-06 0)
(0.000273253791061 1.82578319405e-06 0)
(0.00027166301457 9.40113888714e-07 0)
(0.00027107078059 1.14398433585e-07 0)
(0.000271418125759 -6.66955498278e-07 0)
(0.00027266220014 -1.4172375781e-06 0)
(0.000274774029965 -2.14794380513e-06 0)
(0.000277736744458 -2.86915949516e-06 0)
(0.000281544148669 -3.58984078407e-06 0)
(0.000286199547215 -4.31801603872e-06 0)
(0.0002917147404 -5.06092025763e-06 0)
(0.000298109123963 -5.82506965911e-06 0)
(0.000305408828719 -6.61627939584e-06 0)
(0.000313645837771 -7.43962411092e-06 0)
(0.000322857017839 -8.29933870756e-06 0)
(0.000333082998452 -9.19865526908e-06 0)
(0.000344366829589 -1.01395718278e-05 0)
(0.00035675234627 -1.11225500748e-05 0)
(0.000370282169743 -1.21461427989e-05 0)
(0.000384995282007 -1.32065585811e-05 0)
(0.000400924126741 -1.42971818038e-05 0)
(0.000418091219145 -1.54080807334e-05 0)
(0.000436505293019 -1.65255549401e-05 0)
(0.000456157077958 -1.76317937833e-05 0)
(0.000477014881717 -1.87047362879e-05 0)
(0.000499020246694 -1.97182330877e-05 0)
(0.000522084041841 -2.06426046557e-05 0)
(0.00054608342076 -2.14456571861e-05 0)
(0.0005708600945 -2.20941505022e-05 0)
(0.000596220302265 -2.25556099284e-05 0)
(0.000621936690413 -2.28002487611e-05 0)
(0.000647752029496 -2.28026558531e-05 0)
(0.000673384356762 -2.25428696444e-05 0)
(0.000698532838064 -2.20065843209e-05 0)
(0.000722883555168 -2.1184544354e-05 0)
(0.000746114660384 -2.00715668698e-05 0)
(0.000767900847774 -1.86658273186e-05 0)
(0.000787917610094 -1.69688691253e-05 0)
(0.000805846022701 -1.49864585979e-05 0)
(0.00082137886104 -1.27303521275e-05 0)
(0.000834228943393 -1.02211801719e-05 0)
(0.000844140495893 -7.49211205513e-06 0)
(0.000850903369783 -4.59158983424e-06 0)
(0.000854368086944 -1.58286655899e-06 0)
(0.00085445829813 1.46040560752e-06 0)
(0.000851177529163 4.46123577529e-06 0)
(0.0008446086332 7.34705902918e-06 0)
(0.000834906037631 1.00566155995e-05 0)
(0.000822282467853 1.25441638135e-05 0)
(0.000806993272442 1.47797760933e-05 0)
(0.000789321783348 1.674638102e-05 0)
(0.000769567813835 1.84357723492e-05 0)
(0.00074803952982 1.98453587379e-05 0)
(0.000725047907186 2.09760411944e-05 0)
(0.000700902858784 2.18310321356e-05 0)
(0.000675910160282 2.24156108869e-05 0)
(0.000650368292451 2.27377934776e-05 0)
(0.000624564519837 2.28095072106e-05 0)
(0.000598770044592 2.264758967e-05 0)
(0.000573234655144 2.2274063762e-05 0)
(0.000548181631006 2.17155187322e-05 0)
(0.000523803669338 2.10017728213e-05 0)
(0.000500260361568 2.01641616258e-05 0)
(0.000477677424122 1.92338002641e-05 0)
(0.000456147595264 1.82400791476e-05 0)
(0.000435732907754 1.72095393655e-05 0)
(0.000416467945491 1.61651714703e-05 0)
(0.00039836367582 1.51261078968e-05 0)
(0.000381411491942 1.41076360453e-05 0)
(0.000365587174875 1.31214427596e-05 0)
(0.000350854569776 1.21760031415e-05 0)
(0.000337168851565 1.12770402918e-05 0)
(0.000324479321394 1.04280003261e-05 0)
(0.000312731725286 9.63050505256e-06 0)
(0.000301870119935 8.88475983956e-06 0)
(0.000291838330567 8.18990607517e-06 0)
(0.000282581055238 7.54431568589e-06 0)
(0.000274044672066 6.94583048992e-06 0)
(0.000266177803294 6.39195193436e-06 0)
(0.000258931684826 5.87998813874e-06 0)
(0.000252260383422 5.40716528898e-06 0)
(0.000246120896999 4.97071012324e-06 0)
(0.000240473167045 4.56790945502e-06 0)
(0.000235280026363 4.19615194208e-06 0)
(0.000230507100265 3.85295641856e-06 0)
(0.000226122674966 3.53599045347e-06 0)
(0.00022209754328 3.24308210676e-06 0)
(0.000218404834587 2.97222743997e-06 0)
(0.000215019833376 2.72159591579e-06 0)
(0.000211919788329 2.48953567641e-06 0)
(0.00020908371178 2.27458055221e-06 0)
(0.00020649216726 2.07546080674e-06 0)
(0.000204127040672 1.89111982531e-06 0)
(0.000201971288268 1.72073951826e-06 0)
(0.000200008651739 1.5637779386e-06 0)
(0.000198223327492 1.42002389454e-06 0)
(0.000196599573201 1.2896750716e-06 0)
(0.000195121230339 1.17344889864e-06 0)
(0.000193771137087 1.07273913989e-06 0)
(0.000192530403988 9.89836522246e-07 0)
(0.00019137753051 9.28237928964e-07 0)
(0.000190287369057 8.93072844331e-07 0)
(0.000189230031518 8.91663523149e-07 0)
(0.000188170077302 9.34154592337e-07 0)
(0.000187066970475 1.0338015264e-06 0)
(0.000185879423011 1.20512893663e-06 0)
(0.000184581118303 1.45212503331e-06 0)
(0.000183193195325 1.70277697271e-06 0)
(0.00122477635599 0.000268060219783 0)
(0.00124110841636 0.000383753688092 0)
(0.00119633995093 0.000347683029455 0)
(0.00111384275645 0.000283725984778 0)
(0.00102124302142 0.000224991841654 0)
(0.000932234346268 0.000177728977706 0)
(0.000852234684847 0.00014115802564 0)
(0.000782624985742 0.000113078964785 0)
(0.000723025053128 9.14077182959e-05 0)
(0.000672400294249 7.45003473371e-05 0)
(0.000629566102659 6.11362735382e-05 0)
(0.000593399177507 5.04271303275e-05 0)
(0.000562912294148 4.17278496515e-05 0)
(0.000537268653421 3.4567097723e-05 0)
(0.000515771749366 2.85968156675e-05 0)
(0.000497847150898 2.35566730431e-05 0)
(0.000483023291171 1.92492535277e-05 0)
(0.00047091403477 1.5522715637e-05 0)
(0.000461203851129 1.22585995693e-05 0)
(0.000453635601544 9.36317314286e-06 0)
(0.00044800064127 6.76122320241e-06 0)
(0.000444130860115 4.39155053991e-06 0)
(0.000441892300287 2.20366370703e-06 0)
(0.000441180037915 1.55326820557e-07 0)
(0.000441914067586 -1.78927571008e-06 0)
(0.00044403597588 -3.66091569466e-06 0)
(0.000447506234351 -5.48636811457e-06 0)
(0.000452301974176 -7.28920189858e-06 0)
(0.000458415123775 -9.09036261789e-06 0)
(0.000465850808965 -1.09085861414e-05 0)
(0.000474625926835 -1.27606669051e-05 0)
(0.000484767811126 -1.46615937496e-05 0)
(0.000496312909602 -1.66245582775e-05 0)
(0.000509305393725 -1.86608346495e-05 0)
(0.000523795618674 -2.07795255561e-05 0)
(0.000539838348471 -2.29871669302e-05 0)
(0.000557490658258 -2.52871845061e-05 0)
(0.000576809425341 -2.76791994637e-05 0)
(0.00059784832523 -3.01581895353e-05 0)
(0.000620654261756 -3.27135274228e-05 0)
(0.000645263185304 -3.53279416351e-05 0)
(0.000671695294615 -3.79764761936e-05 0)
(0.000699949679009 -4.06255641177e-05 0)
(0.000729998541387 -4.32323707125e-05 0)
(0.000761781245901 -4.57445985111e-05 0)
(0.000795198550099 -4.81009627158e-05 0)
(0.000830107492982 -5.02325273181e-05 0)
(0.000866317492447 -5.20650186331e-05 0)
(0.000903588223614 -5.35220911888e-05 0)
(0.000941629767144 -5.45293094898e-05 0)
(0.000980105304013 -5.50183553995e-05 0)
(0.00101863628706 -5.49307455703e-05 0)
(0.00105680958825 -5.42202768614e-05 0)
(0.00109418573388 -5.28536683735e-05 0)
(0.00113030720054 -5.08095062974e-05 0)
(0.00116470603123 -4.80764034125e-05 0)
(0.00119691070143 -4.46517142006e-05 0)
(0.00122645284982 -4.0541765335e-05 0)
(0.0012528747671 -3.57637749743e-05 0)
(0.001275738482 -3.03494861129e-05 0)
(0.00129463739615 -2.43509586259e-05 0)
(0.00130921154384 -1.78479728661e-05 0)
(0.0013191664708 -1.09534960361e-05 0)
(0.00132429313769 -3.81234067331e-06 0)
(0.00132448425723 3.408520897e-06 0)
(0.00131974303156 1.05350550832e-05 0)
(0.00131018244396 1.74026327565e-05 0)
(0.00129601524217 2.38707209563e-05 0)
(0.00127753659983 2.98321280674e-05 0)
(0.0012551034588 3.52139853382e-05 0)
(0.00122911515042 3.99717896226e-05 0)
(0.00119999800171 4.4081289193e-05 0)
(0.00116819401296 4.75319120405e-05 0)
(0.00113415252547 5.03223886782e-05 0)
(0.00109832389478 5.24581506436e-05 0)
(0.00106115426246 5.39506091614e-05 0)
(0.00102308035871 5.4818354465e-05 0)
(0.000984523447527 5.5089421826e-05 0)
(0.000945882210824 5.48031849994e-05 0)
(0.000907525138735 5.40107358161e-05 0)
(0.000869783416401 5.27734081293e-05 0)
(0.000832945272441 5.11598140717e-05 0)
(0.000797252435256 4.92421009833e-05 0)
(0.000762898933785 4.70921464083e-05 0)
(0.000730032119614 4.47782336117e-05 0)
(0.000698755539183 4.23625212627e-05 0)
(0.000669133158061 3.98994119083e-05 0)
(0.000641194414926 3.74347692883e-05 0)
(0.000614939631363 3.5005840648e-05 0)
(0.000590345393009 3.26417010426e-05 0)
(0.000567369621884 3.03640368116e-05 0)
(0.000545956159745 2.81881103025e-05 0)
(0.000526038767434 2.61237830853e-05 0)
(0.000507544510767 2.41765116885e-05 0)
(0.0004903965498 2.23482618911e-05 0)
(0.000474516377552 2.06383132161e-05 0)
(0.000459825570253 1.90439434615e-05 0)
(0.000446247117267 1.75609954218e-05 0)
(0.00043370639841 1.61843350335e-05 0)
(0.000422131871806 1.49082139971e-05 0)
(0.000411455528646 1.37265510294e-05 0)
(0.000401613163544 1.26331457935e-05 0)
(0.000392544501429 1.1621838317e-05 0)
(0.000384193214619 1.06866253669e-05 0)
(0.000376506857073 9.82174353965e-06 0)
(0.000369436737044 9.02172747223e-06 0)
(0.000362937744219 8.28145013477e-06 0)
(0.000356968143189 7.5961512325e-06 0)
(0.000351489341253 6.96145878695e-06 0)
(0.00034646563536 6.37340854887e-06 0)
(0.0003418639401 5.82846546653e-06 0)
(0.00033765349602 5.32355155393e-06 0)
(0.00033380555512 4.85608462654e-06 0)
(0.000330293038162 4.4240330781e-06 0)
(0.000327090156358 4.02599260126e-06 0)
(0.000324171988505 3.66129207709e-06 0)
(0.000321514004168 3.330137088e-06 0)
(0.000319091525356 3.03380092839e-06 0)
(0.000316879125755 2.77487309587e-06 0)
(0.000314849982906 2.55757233378e-06 0)
(0.000312975234121 2.38811876243e-06 0)
(0.000311223459583 2.27512275378e-06 0)
(0.000309560559682 2.22984592443e-06 0)
(0.000307950568372 2.26591248573e-06 0)
(0.00030635843437 2.3972792713e-06 0)
(0.000304756589976 2.6310382783e-06 0)
(0.000303136805903 2.94430048559e-06 0)
(0.000301519183863 3.21614366865e-06 0)
(0.00122195021192 0.000221333646437 0)
(0.00125352250888 0.000382575886918 0)
(0.00125144756491 0.000395704216376 0)
(0.00121417181929 0.000355477713617 0)
(0.0011567176005 0.000303294041054 0)
(0.00109148008717 0.000253672940101 0)
(0.00102592110682 0.000210772677793 0)
(0.000963989355861 0.000175005735321 0)
(0.00090749950774 0.000145570701213 0)
(0.000857063535208 0.000121398068738 0)
(0.000812655807977 0.000101480444082 0)
(0.000773939226969 8.49664392716e-05 0)
(0.000740446880113 7.11677444257e-05 0)
(0.000711679605418 5.95380920293e-05 0)
(0.000687155804381 4.96465002528e-05 0)
(0.000666434722366 4.11526428794e-05 0)
(0.000649125350228 3.37864896505e-05 0)
(0.000634887809895 2.73322505246e-05 0)
(0.000623431043758 2.16159889571e-05 0)
(0.000614508896135 1.64961557315e-05 0)
(0.000607915698357 1.18563737637e-05 0)
(0.000603481923098 7.59993189352e-06 0)
(0.000601070172027 3.64556923809e-06 0)
(0.000600571597035 -7.57647854008e-08 0)
(0.000601902766952 -3.62340644926e-06 0)
(0.000605002946279 -7.04889453009e-06 0)
(0.000609831738412 -1.03974608963e-05 0)
(0.000616367032404 -1.37091628543e-05 0)
(0.000624603182707 -1.70197202181e-05 0)
(0.000634549354213 -2.03611024285e-05 0)
(0.000646227962923 -2.3761892713e-05 0)
(0.000659673140134 -2.72474430392e-05 0)
(0.000674929144612 -3.0839823348e-05 0)
(0.000692048642805 -3.45575608217e-05 0)
(0.000711090772151 -3.84151598017e-05 0)
(0.000732118897692 -4.24223909974e-05 0)
(0.000755197968971 -4.65833409595e-05 0)
(0.000780391384272 -5.08952209355e-05 0)
(0.000807757275452 -5.53469503531e-05 0)
(0.000837344142142 -5.99175562944e-05 0)
(0.000869185793111 -6.45744685792e-05 0)
(0.000903295599544 -6.92718406774e-05 0)
(0.000939660133777 -7.39490879003e-05 0)
(0.000978232360192 -7.85298988862e-05 0)
(0.00101892466075 -8.29220316881e-05 0)
(0.00106160210834 -8.70182303437e-05 0)
(0.00110607652975 -9.06985653965e-05 0)
(0.00115210199869 -9.3834382522e-05 0)
(0.0011993724311 -9.6293816457e-05 0)
(0.00124752187594 -9.79484902087e-05 0)
(0.00129612786671 -9.86806122711e-05 0)
(0.00134471780426 -9.83893121421e-05 0)
(0.00139277781595 -9.69949198123e-05 0)
(0.00143976301954 -9.44402663697e-05 0)
(0.00148510787791 -9.06891218223e-05 0)
(0.00152823565272 -8.57232807033e-05 0)
(0.00156856686041 -7.95406034491e-05 0)
(0.00160552756311 -7.21556200716e-05 0)
(0.00163855856207 -6.36027370285e-05 0)
(0.00166712622088 -5.3941809844e-05 0)
(0.00169073584119 -4.32670972313e-05 0)
(0.00170894928268 -3.17193714816e-05 0)
(0.00172140753812 -1.94952521366e-05 0)
(0.00172785514674 -6.84485991128e-06 0)
(0.00172816022185 5.94481623155e-06 0)
(0.00172232497161 1.85751767768e-05 0)
(0.00171048485017 3.07631331558e-05 0)
(0.00169289656085 4.22655996139e-05 0)
(0.00166991696992 5.28953493356e-05 0)
(0.00164197792909 6.25227952943e-05 0)
(0.00160956319236 7.10658606674e-05 0)
(0.00157319070095 7.8476684126e-05 0)
(0.00153339961766 8.47314080034e-05 0)
(0.00149074037846 8.98234340355e-05 0)
(0.00144576681012 9.37591172083e-05 0)
(0.001399029549 9.65563495628e-05 0)
(0.001351069504 9.82463791778e-05 0)
(0.00130241019286 9.88774406333e-05 0)
(0.00125354871171 9.85177117653e-05 0)
(0.00120494613089 9.72556974947e-05 0)
(0.00115701860353 9.51975404458e-05 0)
(0.00111013036184 9.2461921111e-05 0)
(0.00106458933048 8.91737259596e-05 0)
(0.00102064558045 8.54576462687e-05 0)
(0.000978492433179 8.14325783369e-05 0)
(0.000938269753766 7.72073290486e-05 0)
(0.00090006884268 7.28777981333e-05 0)
(0.000863938318024 6.85255612827e-05 0)
(0.000829890442334 6.42176263843e-05 0)
(0.000797907452057 6.00070698368e-05 0)
(0.000767947566335 5.59342575461e-05 0)
(0.000739950464097 5.20283927686e-05 0)
(0.000713842113668 4.83091877153e-05 0)
(0.000689538912725 4.47885139814e-05 0)
(0.000666951148896 4.14719381396e-05 0)
(0.000645985825335 3.83600904747e-05 0)
(0.000626548915074 3.5449844992e-05 0)
(0.000608547116574 3.27353097584e-05 0)
(0.000591889184152 3.02086391802e-05 0)
(0.000576486903307 2.78606870351e-05 0)
(0.000562255774713 2.56815217566e-05 0)
(0.000549115462926 2.36608260176e-05 0)
(0.000536990057849 2.17882012002e-05 0)
(0.000525808189182 2.00533955558e-05 0)
(0.000515503026872 1.84464723241e-05 0)
(0.000506012194064 1.69579320313e-05 0)
(0.000497277613353 1.55788008838e-05 0)
(0.000489245302155 1.43006956446e-05 0)
(0.00048186512874 1.31158737287e-05 0)
(0.000475090536789 1.20172764423e-05 0)
(0.000468878243183 1.09985723533e-05 0)
(0.000463187911049 1.00542076661e-05 0)
(0.00045798179792 9.17947015847e-06 0)
(0.000453224377181 8.37057366116e-06 0)
(0.000448881930149 7.62477006161e-06 0)
(0.000444922106436 6.94049617865e-06 0)
(0.000441313452587 6.31756196028e-06 0)
(0.000438024914749 5.75738429362e-06 0)
(0.000435025332625 5.26326383943e-06 0)
(0.000432282963178 4.84068703167e-06 0)
(0.000429765109647 4.49760020748e-06 0)
(0.000427437993494 4.24452635165e-06 0)
(0.000425267105476 4.09422488694e-06 0)
(0.000423218412086 4.06021289914e-06 0)
(0.000421260937524 4.15258214233e-06 0)
(0.000419371077829 4.36743461727e-06 0)
(0.000417537084634 4.66167748017e-06 0)
(0.000415753160837 4.90030976647e-06 0)
(0.00121698207857 0.000182401350208 0)
(0.00124932675609 0.000357591190161 0)
(0.00126628267737 0.000405807910187 0)
(0.00125702904433 0.000391903372185 0)
(0.00122733268179 0.000354018936278 0)
(0.00118549267261 0.000310025538673 0)
(0.0011380469428 0.000267424760052 0)
(0.00108935950913 0.000228972808103 0)
(0.00104210837793 0.000195344578113 0)
(0.00099781750497 0.000166351007724 0)
(0.000957265543714 0.000141487164005 0)
(0.000920768405243 0.000120173409259 0)
(0.000888365631129 0.000101855865813 0)
(0.000859940031176 8.60428156401e-05 0)
(0.000835292945405 7.23126337259e-05 0)
(0.000814190678858 6.03098281561e-05 0)
(0.000796392493851 4.97368316225e-05 0)
(0.000781666944985 4.03449677772e-05 0)
(0.000769800931379 3.1926021411e-05 0)
(0.000760604260149 2.43049120551e-05 0)
(0.000753911492286 1.73335529933e-05 0)
(0.000749582185154 1.08858049899e-05 0)
(0.00074750022588 4.85337648498e-06 0)
(0.000747572682313 -8.5748336525e-07 0)
(0.000749728423797 -6.32862899444e-06 0)
(0.000753916658268 -1.16321152722e-05 0)
(0.000760105469836 -1.68318730266e-05 0)
(0.000768280385896 -2.19849895395e-05 0)
(0.000778442969584 -2.71426557639e-05 0)
(0.000790609418455 -3.23508148454e-05 0)
(0.000804809133652 -3.76505309806e-05 0)
(0.000821083211046 -4.30780851646e-05 0)
(0.000839482795015 -4.86647942602e-05 0)
(0.000860067225811 -5.44365420544e-05 0)
(0.000882901902658 -6.04130062071e-05 0)
(0.000908055777304 -6.66065642094e-05 0)
(0.00093559838767 -7.30208664657e-05 0)
(0.000965596340113 -7.9649077513e-05 0)
(0.000998109154164 -8.64718102058e-05 0)
(0.00103318439868 -9.34548152639e-05 0)
(0.00107085207724 -0.000100546542714 0)
(0.00111111826826 -0.000107675763046 0)
(0.00115395809627 -0.000114749521783 0)
(0.0011993082086 -0.00012165179222 0)
(0.00124705905683 -0.00012824326953 0)
(0.00129704742716 -0.000134362786253 0)
(0.00134904981419 -0.000139830786679 0)
(0.00140277735698 -0.000144455134249 0)
(0.00145787311622 -0.000148039209859 0)
(0.0015139124126 -0.000150391783501 0)
(0.00157040671781 -0.000151337552473 0)
(0.00162681114861 -0.000150726670144 0)
(0.00168253496992 -0.000148441317603 0)
(0.00173695380184 -0.000144397820757 0)
(0.00178942179903 -0.000138544334893 0)
(0.00183928241379 -0.000130856365997 0)
(0.00188587760936 -0.00012133382923 0)
(0.00192855676449 -0.000110002161537 0)
(0.0019666866698 -9.6917013978e-05 0)
(0.00199966305836 -8.21715029536e-05 0)
(0.00202692436037 -6.59082620433e-05 0)
(0.0020479704981 -4.83377391071e-05 0)
(0.00206238905404 -2.97536713168e-05 0)
(0.00206988506444 -1.05300611654e-05 0)
(0.00207030545893 8.90451820945e-06 0)
(0.00206365146322 2.81046624773e-05 0)
(0.00205007755236 4.66475947297e-05 0)
(0.00202987733452 6.41695368586e-05 0)
(0.00200345806452 8.03901457855e-05 0)
(0.00197131015502 9.51148075419e-05 0)
(0.0019339805321 0.000108218056128 0)
(0.00189205382363 0.000119623529755 0)
(0.0018461391435 0.000129290162996 0)
(0.00179685953997 0.000137203357351 0)
(0.00174484341388 0.000143368724316 0)
(0.00169071750417 0.000147809751588 0)
(0.00163509984186 0.000150570526825 0)
(0.00157859100096 0.000151721293043 0)
(0.00152176336152 0.000151362834912 0)
(0.0014651495541 0.000149626825428 0)
(0.00140923181364 0.000146671551657 0)
(0.00135443368989 0.000142674155504 0)
(0.00130111491929 0.000137821182675 0)
(0.00124956963055 0.000132299126347 0)
(0.00120002758798 0.000126286194812 0)
(0.00115265789523 0.000119945999746 0)
(0.00110757446475 0.000113423391849 0)
(0.001064842563 0.000106842324095 0)
(0.0010244858268 0.000100305412242 0)
(0.000986493271277 9.38947725969e-05 0)
(0.000950825944022 8.76737159714e-05 0)
(0.000917423003334 8.16889302524e-05 0)
(0.000886207099631 7.59728615401e-05 0)
(0.000857089016434 7.05460851352e-05 0)
(0.000829971581414 6.54195298598e-05 0)
(0.00080475289299 6.05964775345e-05 0)
(0.000781328927953 5.60743024377e-05 0)
(0.000759595604724 5.18459453531e-05 0)
(0.000739450378439 4.79011354504e-05 0)
(0.000720793440875 4.42273839636e-05 0)
(0.000703528592144 4.0810778392e-05 0)
(0.000687563843679 3.76366071707e-05 0)
(0.000672811804044 3.46898434685e-05 0)
(0.00065918989132 3.19555144554e-05 0)
(0.000646620408492 2.94189793181e-05 0)
(0.000635030511627 2.70661363715e-05 0)
(0.000624352094713 2.48835766727e-05 0)
(0.000614521609917 2.28586991491e-05 0)
(0.000605479837535 2.09798000734e-05 0)
(0.000597171616188 1.92361481697e-05 0)
(0.000589545540607 1.76180552884e-05 0)
(0.000582553631837 1.61169517995e-05 0)
(0.000576150982731 1.47254751119e-05 0)
(0.000570295380444 1.34375792822e-05 0)
(0.000564946907345 1.22486728352e-05 0)
(0.000560067522884 1.11557905885e-05 0)
(0.000555620631945 1.01578021311e-05 0)
(0.000551570651139 9.25565338026e-06 0)
(0.000547882594732 8.45262475284e-06 0)
(0.000544521718301 7.75456432948e-06 0)
(0.000541453283139 7.17000477212e-06 0)
(0.000538642539296 6.70997569283e-06 0)
(0.000536055066854 6.38713048671e-06 0)
(0.000533657641682 6.21342069408e-06 0)
(0.000531419711183 6.19477443537e-06 0)
(0.00052931504361 6.31976490949e-06 0)
(0.000527321098189 6.53728183546e-06 0)
(0.000525409074217 6.72065030159e-06 0)
(0.0012129217207 0.000152497544616 0)
(0.00124207585677 0.000325996161864 0)
(0.00126665750589 0.000395865340051 0)
(0.00127370474038 0.000404052312243 0)
(0.00126345433061 0.000381816738648 0)
(0.00124052901151 0.000346993033516 0)
(0.00120974973765 0.00030868223719 0)
(0.00117493597916 0.00027121649116 0)
(0.00113881293432 0.000236475039019 0)
(0.00110321407453 0.000205110247436 0)
(0.00106931484473 0.000177179083138 0)
(0.00103782786351 0.000152465577476 0)
(0.00100915006395 0.000130644238752 0)
(0.000983468670451 0.000111361403433 0)
(0.000960835665975 9.42741032192e-05 0)
(0.00094121928323 7.90669747324e-05 0)
(0.000924539159359 6.54579604316e-05 0)
(0.000910690048953 5.319846447e-05 0)
(0.000899557605299 4.20709479288e-05 0)
(0.000891028706433 3.18855213106e-05 0)
(0.000884998055157 2.24763282835e-05 0)
(0.000881372251072 1.36981060623e-05 0)
(0.000880072159097 5.42309156118e-06 0)
(0.000881034138215 -2.46166932195e-06 0)
(0.000884210505312 -1.00565871519e-05 0)
(0.000889569492834 -1.74514148107e-05 0)
(0.000897094873173 -2.47268012224e-05 0)
(0.000906785344116 -3.19554842419e-05 0)
(0.00091865372891 -3.92031654306e-05 0)
(0.000932726015483 -4.652907641e-05 0)
(0.000949040232724 -5.39862374219e-05 0)
(0.000967645141159 -6.16213997574e-05 0)
(0.000988598698546 -6.94746556913e-05 0)
(0.00101196624646 -7.75786932566e-05 0)
(0.00103781835153 -8.5957669845e-05 0)
(0.00106622822445 -9.46256797763e-05 0)
(0.0010972686322 -0.000103584799048 0)
(0.00113100821514 -0.000112822708347 0)
(0.00116750712299 -0.000122309926922 0)
(0.00120681189607 -0.000131996738926 0)
(0.00124894954314 -0.000141809964118 0)
(0.00129392081252 -0.000151649817627 0)
(0.00134169272238 -0.000161387216213 0)
(0.00139219051599 -0.000170862009899 0)
(0.00144528934114 -0.000179882725789 0)
(0.00150080611447 -0.000188228468043 0)
(0.00155849220927 -0.000195653574307 0)
(0.00161802776723 -0.00020189542763 0)
(0.00167901853668 -0.00020668541762 0)
(0.00174099611891 -0.000209762418604 0)
(0.00180342228902 -0.000210887348563 0)
(0.00186569757432 -0.000209856537723 0)
(0.0019271734807 -0.000206511117326 0)
(0.00198716676431 -0.000200740068862 0)
(0.00204497340384 -0.000192476649549 0)
(0.00209988024067 -0.000181691424053 0)
(0.00215117408058 -0.000168387724693 0)
(0.00219815025747 -0.000152603515337 0)
(0.0022401227425 -0.000134417969989 0)
(0.00227643561843 -0.000113959737031 0)
(0.00230647577995 -9.14214279834e-05 0)
(0.0023296915328 -6.70864165262e-05 0)
(0.00234562275202 -4.13547436284e-05 0)
(0.00235393802789 -1.47402762e-05 0)
(0.00235446488371 1.21674523737e-05 0)
(0.00234720408417 3.87564630279e-05 0)
(0.00233232825195 6.44454490087e-05 0)
(0.0023101654683 8.8734572454e-05 0)
(0.00228116808273 0.000111241636231 0)
(0.00224587502022 0.000131704147162 0)
(0.00220488120345 0.000149952006589 0)
(0.00215881907125 0.000165878266415 0)
(0.00210834661079 0.000179422412256 0)
(0.00205413696153 0.000190560207192 0)
(0.00199686979167 0.000199295019343 0)
(0.00193722482477 0.000205654186111 0)
(0.00187587521818 0.000209693219537 0)
(0.00181347821326 0.000211504311137 0)
(0.00175066273409 0.000211222808004 0)
(0.0016880157348 0.00020902753982 0)
(0.00162606968145 0.000205134520348 0)
(0.00156529296678 0.000199785923113 0)
(0.0015060841224 0.000193236936478 0)
(0.001448769902 0.000185742796416 0)
(0.00139360678654 0.000177547605492 0)
(0.00134078518314 0.000168875815483 0)
(0.00129043549796 0.000159926629053 0)
(0.00124263530412 0.000150871126201 0)
(0.00119741694544 0.000141851654521 0)
(0.00115477507092 0.000132982915023 0)
(0.00111467374814 0.000124354182741 0)
(0.00107705293815 0.000116032177225 0)
(0.0010418342202 0.000108064202606 0)
(0.00100892573259 0.000100481284069 0)
(0.000978226348319 9.33011217748e-05 0)
(0.000949629137183 8.65307587127e-05 0)