/*--------------------------------*- C++ -*----------------------------------*\
  =========                 |
  \\      /  F ield         | OpenFOAM: The Open Source CFD Toolbox
   \\    /   O peration     | Website:  https://openfoam.org
    \\  /    A nd           | Version:  7
     \\/     M anipulation  |
\*---------------------------------------------------------------------------*/
FoamFile
{
    version     2.0;
    format      ascii;
    class       volScalarField;
    location    "2580";
    object      p;
}
// * * * * * * * * * * * * * * * * * * * * * * * * * * * * * * * * * * * * * //

dimensions      [0 2 -2 0 0 0 0];

internalField   nonuniform List<scalar> 
8192
(
0.000576247665192
0.000404696758999
0.000319078012572
0.000274960978939
0.000249932586043
0.000234692256624
0.000224821905602
0.000218076857168
0.000213250128881
0.000209657630003
0.000206891959362
0.000204699173254
0.000202914374543
0.000201426589576
0.000200158808225
0.000199056182495
0.000198078783591
0.000197197000468
0.000196388522805
0.00019563630563
0.000194927160402
0.000194250756899
0.000193598900983
0.000192965001661
0.000192343670265
0.000191730413236
0.000191121391735
0.000190513229203
0.00018990285294
0.000189287359441
0.000188663896129
0.000188029553249
0.000187381260371
0.000186715683445
0.000186029118716
0.000185317380567
0.000184575680593
0.000183798496096
0.000182979426683
0.000182111039096
0.000181184701684
0.000180190412489
0.000179116627611
0.000177950100806
0.00017667574984
0.00017527657116
0.000173733630212
0.000172026160726
0.00017013180986
0.000168027066861
0.000165687907415
0.000163090673913
0.000160213190879
0.000157036087243
0.000153544263718
0.000149728410159
0.000145586447085
0.000141124743672
0.000136358953392
0.000131314315792
0.000126025304267
0.000120534565418
0.000114891193579
0.000109148501361
0.000103361548413
9.75847402209e-05
9.18697833147e-05
8.62641739331e-05
8.08102557923e-05
7.55447690622e-05
7.0498734126e-05
6.56975039347e-05
6.11608596525e-05
5.69030910435e-05
5.29330656549e-05
4.925433402e-05
4.58653322855e-05
4.27597337878e-05
3.99269724667e-05
3.73529267434e-05
3.50207205235e-05
3.29115785344e-05
3.10056672519e-05
2.92828613163e-05
2.77233918178e-05
2.63083537863e-05
2.5020068648e-05
2.38423124862e-05
2.27604295056e-05
2.17613546326e-05
2.08335688322e-05
1.99670088822e-05
1.91529492623e-05
1.83838703547e-05
1.76533229554e-05
1.69557963766e-05
1.62865943864e-05
1.56417217536e-05
1.50177822954e-05
1.44118888206e-05
1.38215842788e-05
1.32447735074e-05
1.26796643196e-05
1.21247170569e-05
1.15786012841e-05
1.10401588093e-05
1.05083718493e-05
9.98233570652e-06
9.46123498789e-06
8.94432295851e-06
8.43090330992e-06
7.92031421734e-06
7.41191431189e-06
6.90507090179e-06
6.39915072467e-06
5.89351455936e-06
5.3875175544e-06
4.88051918612e-06
4.37190907954e-06
3.86116025509e-06
3.3479298653e-06
2.83224495045e-06
2.31484411885e-06
1.79781719284e-06
1.28584411387e-06
7.88731534011e-07
3.27647458549e-07
8.18736982436e-09
0.000427335135622
0.000363820073092
0.000314128951361
0.000281475026148
0.000259550614848
0.000244365543496
0.000233541314721
0.000225613240138
0.000219656228423
0.000215072009196
0.000211464591304
0.000208565829887
0.000206190115712
0.000204206276403
0.000202519810833
0.000201061429822
0.00019977951349
0.000198635046093
0.000197598147566
0.00019664565354
0.000195759396496
0.000194924964092
0.000194130787602
0.000193367462239
0.000192627232507
0.000191903596398
0.000191190995832
0.000190484570073
0.000189779954916
0.000189073114784
0.000188360198921
0.000187637414097
0.000186900907368
0.000186146654398
0.000185370349448
0.000184567294006
0.000183732281555
0.000182859476858
0.00018194228885
0.000180973237483
0.000179943816202
0.000178844353814
0.000177663881893
0.000176390017234
0.000175008872554
0.000173505013242
0.000171861482352
0.000170059920352
0.000168080808601
0.000165903865501
0.000163508619441
0.000160875172482
0.000157985151506
0.00015482282102
0.000151376304871
0.000147638837442
0.00014360994116
0.000139296410666
0.000134712976464
0.000129882527101
0.00012483579369
0.000119610452146
0.000114249677078
0.000108800276748
0.000103310622976
9.7828630868e-05
9.24000285142e-05
8.70670614275e-05
8.18676588967e-05
7.68350031577e-05
7.19973749347e-05
6.73781427678e-05
6.29957979428e-05
5.88639903405e-05
5.49915698159e-05
5.13826706979e-05
4.80368872497e-05
4.49495791914e-05
4.21123233101e-05
3.95134996264e-05
3.71389752504e-05
3.49728336737e-05
3.29980929724e-05
3.11973636098e-05
2.95534100992e-05
2.8049597606e-05
2.66702194495e-05
2.54007134711e-05
2.42277822573e-05
2.31394359226e-05
2.2124976185e-05
2.11749391726e-05
2.02810114335e-05
1.94359309537e-05
1.86333818113e-05
1.78678888838e-05
1.7134716666e-05
1.64297749444e-05
1.57495325831e-05
1.50909401144e-05
1.44513609553e-05
1.38285109869e-05
1.32204057215e-05
1.2625314463e-05
1.2041720536e-05
1.14682869643e-05
1.09038267377e-05
1.03472771618e-05
9.79767758735e-06
9.25415019864e-06
8.71588338083e-06
8.18211761165e-06
7.65213373403e-06
7.12524400432e-06
6.60078639569e-06
6.07812345457e-06
5.55664753467e-06
5.03579575474e-06
4.51507968039e-06
3.99413807493e-06
3.47282570507e-06
2.95135950557e-06
2.43055652552e-06
1.9122216906e-06
1.39978437208e-06
8.99388794078e-07
4.21335757699e-07
4.9447583212e-08
0.000344390544318
0.000321721170038
0.000295727235589
0.000274488604718
0.000258367420113
0.000246054742391
0.000236531271466
0.000229069524301
0.000223147604534
0.000218386408404
0.000214507716998
0.000211305550952
0.00020862612866
0.000206353656037
0.000204400176835
0.000202698284081
0.000201195857214
0.000199852237583
0.000198635428524
0.000197520028535
0.000196485691905
0.000195515971373
0.000194597439421
0.000193719014324
0.000192871437662
0.000192046864613
0.000191238538558
0.000190440529054
0.000189647516917
0.000188854614162
0.000188057210715
0.00018725084026
0.000186431058689
0.000185593330996
0.000184732922847
0.000183844793962
0.000182923490961
0.000181963038243
0.000180956826031
0.00017989749593
0.000178776825366
0.000177585614108
0.000176313577897
0.000174949257066
0.000173479950896
0.000171891692366
0.000170169281488
0.000168296399322
0.000166255826893
0.000164029793877
0.000161600478068
0.000158950668617
0.00015606459129
0.000152928874587
0.000149533611776
0.000145873450674
0.000141948622304
0.00013776580572
0.000133338718735
0.000128688327116
0.000123842581379
0.000118835631649
0.000113706540455
0.000108497605011
0.000103252486029
9.8014382924e-05
9.28244905798e-05
8.77208690606e-05
8.27377383262e-05
7.79051364699e-05
7.32488121521e-05
6.8790224006e-05
6.45465593808e-05
6.05307390389e-05
5.67514204072e-05
5.32130405666e-05
4.99159465768e-05
4.68566503461e-05
4.4028222057e-05
4.14208099028e-05
3.90222501591e-05
3.68187181734e-05
3.47953679384e-05
3.29369159603e-05
3.12281383366e-05
2.96542657388e-05
2.82012740879e-05
2.68560790532e-05
2.56066479551e-05
2.44420454968e-05
2.3352429244e-05
2.23290095798e-05
2.13639861075e-05
2.04504703637e-05
1.95824019366e-05
1.87544634438e-05
1.79619977598e-05
1.72009299854e-05
1.64676952841e-05
1.57591734013e-05
1.50726298064e-05
1.44056634594e-05
1.37561606207e-05
1.31222543924e-05
1.25022892482e-05
1.18947901864e-05
1.12984357855e-05
1.07120348664e-05
1.01345061531e-05
9.56486077717e-06
9.00218719031e-06
8.4456385409e-06
7.89442233921e-06
7.34779280138e-06
6.80504613642e-06
6.26551976052e-06
5.72859651902e-06
5.19371603619e-06
4.66039586537e-06
4.12826681091e-06
3.59712831384e-06
3.06703297568e-06
2.53841320891e-06
2.01226965542e-06
1.49044743202e-06
9.75970223265e-07
4.7280389214e-07
6.07866440063e-08
0.000299845229614
0.000291452424118
0.000277255105833
0.000263458041793
0.000252025081086
0.000242745658811
0.000235167292711
0.000228921945497
0.000223731617779
0.00021938381371
0.000215712782747
0.000212587426306
0.000209903235964
0.000207576529322
0.000205540094255
0.000203739794554
0.000202131889548
0.000200680908684
0.000199357965122
0.000198139417773
0.000197005809238
0.00019594102147
0.000194931602679
0.000193966228633
0.000193035269279
0.000192130437785
0.000191244504001
0.00019037105841
0.000189504314447
0.000188638940315
0.000187769914824
0.000186892400625
0.000186001629256
0.000185092794795
0.000184160952937
0.00018320092297
0.000182207190635
0.000181173810505
0.000180094307045
0.000178961574426
0.000177767776024
0.000176504245959
0.000175161396589
0.000173728638159
0.000172194319437
0.000170545701505
0.000168768980473
0.000166849378709
0.000164771327122
0.000162518762518
0.000160075562042
0.000157426130124
0.000154556140536
0.000151453417571
0.000148108917413
0.000144517747707
0.000140680143466
0.000136602303824
0.000132296985662
0.00012778374762
0.000123088746147
0.000118244017823
0.000113286250425
0.00010825514581
0.000103191579628
9.81358149013e-05
9.31260345311e-05
8.81973246996e-05
8.33811004063e-05
7.87048937681e-05
7.4192348261e-05
6.9863276101e-05
6.57336908381e-05
6.18157912927e-05
5.81179230608e-05
5.46445708324e-05
5.13964380681e-05
4.83706559673e-05
4.55611372152e-05
4.29590605339e-05
4.05534470084e-05
3.83317754524e-05
3.62805829712e-05
3.43860068144e-05
3.26342389186e-05
3.10118809217e-05
2.95062005896e-05
2.81052997552e-05
2.67982083651e-05
2.55749207089e-05
2.44263888484e-05
2.33444863805e-05
2.23219530275e-05
2.13523282934e-05
2.04298801108e-05
1.95495328004e-05
1.8706797108e-05
1.78977041919e-05
1.71187444989e-05
1.63668120778e-05
1.5639154347e-05
1.49333272379e-05
1.42471553313e-05
1.35786966723e-05
1.2926211755e-05
1.22881363213e-05
1.16630574817e-05
1.10496928496e-05
1.04468722816e-05
9.85352201522e-06
9.2686509144e-06
8.69133875809e-06
8.12072644669e-06
7.55600826032e-06
6.99642629101e-06
6.44126749325e-06
5.8898638794e-06
5.3415968451e-06
4.79590690198e-06
4.25231089568e-06
3.71042965964e-06
3.17003081445e-06
2.63109351452e-06
2.09390314469e-06
1.55916891628e-06
1.02804513178e-06
5.01399845882e-07
6.26399746838e-08
0.000272236882278
0.000270259135825
0.000262450821243
0.000253249898212
0.000244961541502
0.000237923267649
0.000231978207519
0.000226921111927
0.00022258367153
0.00021883621052
0.000215577446084
0.000212726107971
0.000210215551836
0.000207990387949
0.000206004252048
0.00020421820185
0.000202599473089
0.000201120465338
0.000199757893831
0.000198492073078
0.000197306310627
0.000196186394731
0.000195120162199
0.000194097134364
0.000193108210415
0.000192145408612
0.000191201647128
0.00019027055793
0.000189346325618
0.000188423547108
0.000187497109467
0.000186562080647
0.000185613609064
0.000184646830034
0.000183656776642
0.000182638293054
0.000181585948604
0.000180493951429
0.000179356060784
0.000178165497853
0.000176914855466
0.000175596008307
0.000174200026415
0.000172717096805
0.000171136460363
0.000169446374437
0.000167634115245
0.000165686038536
0.000163587720907
0.000161324207069
0.000158880388178
0.000156241531418
0.00015339396922
0.000150325937729
0.000147028529931
0.0001434967041
0.00013973026766
0.000135734742887
0.000131522011283
0.000127110625007
0.000122525670997
0.000117798095952
0.000112963470432
0.000108060290293
0.000103128045754
9.82053584708e-05
9.33285109772e-05
8.85305119176e-05
8.38406598881e-05
7.92844944766e-05
7.48839294513e-05
7.06573956011e-05
6.66198998181e-05
6.27829882689e-05
5.91546589937e-05
5.57392958102e-05
5.25376944788e-05
4.95472317811e-05
4.67621957553e-05
4.41742601754e-05
4.17730575092e-05
3.95467899006e-05
3.74828186515e-05
3.55681860965e-05
3.37900425836e-05
3.2135969757e-05
3.05942051682e-05
2.91537817292e-05
2.78045988808e-05
2.65374424847e-05
2.5343968416e-05
2.42166622087e-05
2.31487841861e-05
2.21343070996e-05
2.11678511283e-05
2.02446195889e-05
1.93603374027e-05
1.85111936051e-05
1.76937884757e-05
1.69050855552e-05
1.61423684481e-05
1.54032022408e-05
1.46853991673e-05
1.3986988208e-05
1.33061881893e-05
1.26413840594e-05
1.19911059362e-05
1.13540106504e-05
1.07288654442e-05
1.0114533623e-05
9.50996189981e-06
8.91416931874e-06
8.32623759292e-06
7.74530285225e-06
7.17054876764e-06
6.60120121158e-06
6.03652464836e-06
5.475820744e-06
4.9184299001e-06
4.36373701042e-06
3.81118338528e-06
3.26028776697e-06
2.71067925077e-06
2.16213923804e-06
1.6146183613e-06
1.06807207234e-06
5.21634893277e-07
6.29811578699e-08
0.00025390055595
0.000254783138827
0.000250729115082
0.000244584883303
0.000238482216119
0.000233042847153
0.000228317193242
0.000224210221185
0.000220615202547
0.000217443532761
0.00021462574797
0.000212106969288
0.000209842704684
0.000207795950179
0.000205935340083
0.000204233965189
0.000202668579035
0.000201219022814
0.00019986777565
0.00019859958171
0.000197401129699
0.000196260772359
0.000195168279198
0.00019411461822
0.000193091763314
0.000192092524412
0.000191110397582
0.000190139433497
0.000189174117983
0.00018820926534
0.000187239923553
0.000186261287042
0.000185268614658
0.000184257151934
0.000183222055912
0.000182158321077
0.000181060705076
0.00017992365312
0.000178741220202
0.000177506990647
0.000176213994976
0.000174854624887
0.000173420548206
0.000171902627337
0.000170290846973
0.000168574260007
0.000166740964596
0.000164778130285
0.000162672096357
0.000160408570222
0.000157972955651
0.000155350837568
0.000152528639119
0.000149494446843
0.000146238972674
0.000142756593291
0.000139046385056
0.000135113059754
0.000130967696772
0.00012662815232
0.00012211900831
0.000117470930639
0.00011271937882
0.000107902758926
0.000103060291687
9.82299684668e-05
9.34470118464e-05
8.87430070022e-05
8.41456273616e-05
7.96787912734e-05
7.53629729078e-05
7.12154519703e-05
6.72504021321e-05
6.34788235838e-05
5.99083919935e-05
5.65433211372e-05
5.33843294948e-05
5.04287731661e-05
4.76709667562e-05
4.51026703805e-05
4.27136861935e-05
4.04924915882e-05
3.84268401083e-05
3.65042798444e-05
3.47125631054e-05
3.30399428884e-05
3.14753665782e-05
3.00085851208e-05
2.86301978418e-05
2.73316516228e-05
2.61052098672e-05
2.49439031797e-05
2.3841470336e-05
2.27922955162e-05
2.17913456553e-05
2.0834110354e-05
1.99165456842e-05
1.90350225929e-05
1.81862800859e-05
1.73673831513e-05
1.65756851478e-05
1.58087943572e-05
1.50645442909e-05
1.43409673988e-05
1.36362717727e-05
1.29488205204e-05
1.22771134544e-05
1.16197708271e-05
1.09755188175e-05
1.03431765607e-05
9.72164448447e-06
9.10989380476e-06
8.50695700158e-06
7.91191919433e-06
7.32391032003e-06
6.74209814141e-06
6.16568215238e-06
5.59388865714e-06
5.02596746896e-06
4.46119102927e-06
3.89885693801e-06
3.33829459885e-06
2.7788738103e-06
2.22000199918e-06
1.66106056448e-06
1.10113655879e-06
5.38259432724e-07
6.36428459129e-08
0.000241031336644
0.000243139973967
0.000241328551176
0.000237299431499
0.000232802580131
0.000228554673273
0.000224744974132
0.000221367834318
0.000218365873601
0.000215678661369
0.000213255185295
0.000211054659927
0.000209044476253
0.000207198033091
0.000205493091476
0.000203910653067
0.000202434220965
0.000201049308068
0.000199743096488
0.000198504186803
0.000197322400826
0.000196188617344
0.000195094629588
0.000194033018331
0.000192997037303
0.000191980508941
0.000190977729078
0.000189983381262
0.000188992453809
0.000188000164118
0.000187001890291
0.000185993105396
0.000184969313982
0.000183925990311
0.000182858517228
0.000181762124557
0.000180631825989
0.000179462353453
0.000178248088036
0.00017698298672
0.000175660504482
0.000174273511818
0.000172814208638
0.000171274036822
0.000169643595841
0.000167912568995
0.000166069672109
0.000164102642319
0.000161998291288
0.00015974265402
0.000157321269122
0.000154719625618
0.000151923801359
0.000148921296326
0.000145702032343
0.00014225945694
0.000138591664082
0.000134702433639
0.000130602084781
0.000126308016779
0.000121844770538
0.000117243425418
0.000112540216879
0.000107774453592
0.000102986065341
9.82132648445e-05
9.34908753185e-05
8.88495270263e-05
8.43155905931e-05
7.99116019427e-05
7.56567993684e-05
7.15675006127e-05
6.76572158343e-05
6.39365299957e-05
6.04128646726e-05
5.70902497915e-05
5.39692198826e-05
5.10469118144e-05
4.83173894939e-05
4.57721660424e-05
4.34008508291e-05
4.11918304415e-05
3.91329011623e-05
3.72117970156e-05
3.54165888133e-05
3.37359556779e-05
3.21593467046e-05
3.06770571616e-05
2.92802436636e-05
2.79608992157e-05
2.67118042652e-05
2.55264653122e-05
2.43990488368e-05
2.33243154413e-05
2.22975570846e-05
2.13145389268e-05
2.03714464323e-05
1.94648378404e-05
1.85916018019e-05
1.77489198157e-05
1.69342330207e-05
1.61452128804e-05
1.53797353055e-05
1.46358577922e-05
1.39117991825e-05
1.32059216983e-05
1.25167149308e-05
1.18427815061e-05
1.11828241738e-05
1.05356340978e-05
9.90008014614e-06
9.27509900666e-06
8.65968596827e-06
8.05288624217e-06
7.45378672053e-06
6.86150812223e-06
6.27519753122e-06
5.69402142047e-06
5.11715932549e-06
4.54379832214e-06
3.97312806464e-06
3.40433458396e-06
2.83658621659e-06
2.26899187618e-06
1.7004802772e-06
1.12949036719e-06
5.53323906118e-07
6.55324990211e-08
0.000231583670192
0.000234155465836
0.000233691882623
0.00023114513461
0.000227864243939
0.000224543837441
0.000221449164716
0.000218642442039
0.000216109304736
0.000213814174368
0.000211720679827
0.000209797569091
0.000208019344605
0.000206365338161
0.000204818569374
0.000203364792269
0.000201991794082
0.000200688905848
0.000199446665925
0.000198256586083
0.000197110983619
0.000196002855073
0.000194925775994
0.000193873817227
0.000192841471971
0.000191823590235
0.000190815318538
0.000189812045696
0.000188809346838
0.000187802931109
0.000186788594953
0.000185762174197
0.000184719496542
0.000183656333888
0.000182568353709
0.000181451068642
0.00018029978335
0.000179109537706
0.000177875045265
0.000176590626003
0.000175250132424
0.000173846868403
0.000172373500724
0.000170821964387
0.000169183364616
0.000167447881585
0.000165604688472
0.000163641900044
0.000161546577388
0.000159304823891
0.000156902015657
0.000154323212069
0.000151553783597
0.000148580269772
0.000145391441652
0.000141979500617
0.000138341316093
0.000134479598703
0.000130403907282
0.000126131361395
0.000121686858683
0.000117102533112
0.000112416251002
0.000107669194625
0.000102902945635
9.81567152489e-05
9.34654678824e-05
8.88591978277e-05
8.43631462502e-05
7.99985850879e-05
7.57836430324e-05
7.17338301683e-05
6.786216176e-05
6.41789597022e-05
6.06914938788e-05
5.74036360077e-05
5.43156698087e-05
5.14243522368e-05
4.87232556461e-05
4.6203350268e-05
4.3853731425e-05
4.16623752429e-05
3.9616822149e-05
3.77047253424e-05
3.59142427133e-05
3.42342822592e-05
3.26546282488e-05
3.11659804156e-05
2.97599357064e-05
2.84289360456e-05
2.71661988957e-05
2.59656417205e-05
2.4821807086e-05
2.37297921614e-05
2.26851843902e-05
2.16840039424e-05
2.07226528396e-05
1.97978703216e-05
1.89066938275e-05
1.80464249528e-05
1.72145997293e-05
1.64089626497e-05
1.56274438948e-05
1.48681393061e-05
1.41292926845e-05
1.34092800694e-05
1.27065956782e-05
1.20198392475e-05
1.13477045271e-05
1.06889687282e-05
1.00424827264e-05
9.4071618618e-06
8.78197717338e-06
8.16594694164e-06
7.5581284099e-06
6.95760959293e-06
6.36350106932e-06
5.77492765909e-06
5.19101975924e-06
4.6109037864e-06
4.03369020385e-06
3.45845523999e-06
2.88420673008e-06
2.3098121774e-06
1.73384383666e-06
1.15426618769e-06
5.67902241443e-07
6.91726785823e-08
0.000224390958197
0.000227072351383
0.000227418036284
0.000225914387347
0.000223565179165
0.000220986018013
0.000218469689356
0.00021612355832
0.000213968408471
0.000211991248542
0.000210169345109
0.000208479771975
0.000206902491753
0.000205420836108
0.000204021092306
0.000202691890928
0.000201423644343
0.000200208102144
0.000199038021314
0.000197906928448
0.00019680894949
0.000195738686495
0.000194691126149
0.000193661569306
0.00019264557424
0.000191638908817
0.000190637508723
0.000189637440356
0.000188634862458
0.00018762598885
0.000186607056775
0.000185574292118
0.000184523874076
0.000183451898572
0.000182354339755
0.000181227008783
0.000180065509038
0.000178865186722
0.000177621075684
0.000176327835161
0.000174979679057
0.000173570295388
0.000172092754875
0.000170539408369
0.000168901774453
0.000167170421363
0.000165334852271
0.000163383410263
0.000161303229738
0.000159080273518
0.000156699507559
0.000154145272219
0.000151401903025
0.000148454626945
0.000145290711944
0.00014190079171
0.000138280251018
0.000134430559845
0.000130360465227
0.000126086923675
0.000121635538485
0.000117040127422
0.000112341077418
0.000107582478174
0.000102808554197
9.80602831827e-05
9.33732299753e-05
8.87769389777e-05
8.4295552963e-05
7.99490852915e-05
7.57546150862e-05
7.17269770251e-05
6.78788693469e-05
6.42205293717e-05
6.07592099087e-05
5.74986803762e-05
5.44389301258e-05
5.15761901294e-05
4.89033085061e-05
4.64104235953e-05
4.40858066184e-05
4.19167225839e-05
3.98901847247e-05
3.7993532053e-05
3.62148143583e-05
3.45430070029e-05
3.2968095552e-05
3.14810722588e-05
3.00738798848e-05
2.87393289233e-05
2.74710054736e-05
2.62631800509e-05
2.51107228148e-05
2.40090275825e-05
2.29539452122e-05
2.19417259398e-05
2.09689698282e-05
2.00325843025e-05
1.91297477757e-05
1.82578784232e-05
1.74146072986e-05
1.6597755072e-05
1.58053118043e-05
1.50354192398e-05
1.42863552062e-05
1.35565197489e-05
1.28444227131e-05
1.21486724992e-05
1.14679657828e-05
1.08010779904e-05
1.01468543675e-05
9.50420146896e-06
8.8720789349e-06
8.24949139586e-06
7.63548037419e-06
7.02911600455e-06
6.42948837089e-06
5.83569811061e-06
5.24684568219e-06
4.66201805328e-06
4.08027026432e-06
3.50059652179e-06
2.92187994182e-06
2.34279987215e-06
1.76166063277e-06
1.17609457239e-06
5.82619935076e-07
7.49074065554e-08
0.000218755634918
0.00022138706773
0.000222214693819
0.000221445659273
0.000219812480546
0.000217832886175
0.000215795316688
0.000213832174332
0.000211990284523
0.000210276007006
0.000208679332671
0.000207185338666
0.000205779053878
0.000204447186241
0.000203178476188
0.000201963517713
0.000200794423495
0.000199664488353
0.000198567904038
0.000197499535217
0.00019645475008
0.000195429294436
0.000194419198312
0.000193420705955
0.000192430222162
0.000191444269752
0.000190459455631
0.000189472440378
0.000188479909419
0.000187478544742
0.000186465001717
0.000185435883008
0.000184387711546
0.000183316901835
0.00018221972891
0.000181092294133
0.000179930486916
0.000178729941239
0.00017748598563
0.000176193584978
0.000174847272312
0.000173441068438
0.00017196838731
0.000170421925379
0.000168793534339
0.000167074079253
0.000165253288846
0.000163319612868
0.000161260113693
0.000159060435719
0.00015670491432
0.000154176899878
0.000151459370743
0.000148535879685
0.00014539181681
0.000142015895307
0.000138401717059
0.000134549291666
0.000130466440454
0.00012617000526
0.000121686599244
0.000117052370227
0.000112311210994
0.000107511298858
0.00010270062393
9.79227478735e-05
9.32142383023e-05
8.86042422176e-05
8.41156856486e-05
7.97672170545e-05
7.55748718633e-05
7.15529367746e-05
6.77139958242e-05
6.40684164184e-05
6.06236035825e-05
5.73833054756e-05
5.43471839103e-05
5.15107922009e-05
4.88660041769e-05
4.64018166489e-05
4.41053516278e-05
4.1962858517e-05
3.99605604853e-05
3.80852673937e-05
3.63247500765e-05
3.46679161164e-05
3.31048438948e-05
3.1626728847e-05
3.0225783935e-05
2.88951228801e-05
2.76286433114e-05
2.64209188368e-05
2.52671037979e-05
2.41628514574e-05
2.31042448012e-05
2.20877384751e-05
2.11101101987e-05
2.01684200801e-05
1.92599764309e-05
1.83823068984e-05
1.75331339297e-05
1.6710353763e-05
1.59120182922e-05
1.51363192728e-05
1.43815744361e-05
1.36462151574e-05
1.29287753855e-05
1.22278815872e-05
1.15422435006e-05
1.08706455126e-05
1.02119385015e-05
9.56503199029e-06
8.92888646606e-06
8.30250570665e-06
7.68492893602e-06
7.07522257179e-06
6.47247122207e-06
5.87576737215e-06
5.28419879042e-06
4.69683188212e-06
4.1126877065e-06
3.53070455985e-06
2.94967610401e-06
2.36814636061e-06
1.78423413275e-06
1.19535843836e-06
5.97864534872e-07
8.29655589843e-08
0.000214242124877
0.000216756216211
0.000217865019823
0.000217613086751
0.000216529899526
0.000215037087219
0.000213400671149
0.000211762554548
0.000210186755685
0.000208694978612
0.000207288474612
0.000205959918686
0.000204699301598
0.000203496584516
0.000202342722411
0.000201229920189
0.000200151561167
0.000199102020478
0.000198076459735
0.000197070641922
0.000196080778409
0.000195103408115
0.000194135304303
0.000193173403363
0.000192214750274
0.000191256456179
0.000190295666798
0.000189329533374
0.000188355187276
0.00018736971684
0.000186370147949
0.000185353422922
0.000184316378501
0.000183255722221
0.000182168006371
0.000181049598703
0.000179896648883
0.000178705049455
0.000177470389774
0.000176187900999
0.000174852389765
0.000173458157667
0.000171998903305
0.000170467603514
0.000168856371057
0.000167156288048
0.000165357218995
0.000163447615896
0.000161414342044
0.00015924256187
0.000156915769557
0.000154416052178
0.000151724689228
0.000148823159893
0.000145694550209
0.000142325243497
0.000138706703958
0.000134837199355
0.000130723434225
0.000126382097703
0.000121841062432
0.000117139490033
0.00011232592364
0.00010745405188
0.000102576983513
9.77417935162e-05
9.29864119381e-05
8.83394890524e-05
8.38224446081e-05
7.94523405826e-05
7.52441350164e-05
7.12117115417e-05
6.73677878608e-05
6.37231247527e-05
6.02854873503e-05
5.70587045762e-05
5.40420753722e-05
5.12302972402e-05
4.8613975524e-05
4.6180606895e-05
4.3915798299e-05
4.18044544051e-05
3.98317382395e-05
3.79837223416e-05
3.62477433447e-05
3.46125254681e-05
3.30681514826e-05
3.16059491449e-05
3.0218341984e-05
2.88986948231e-05
2.76411703133e-05
2.64406034393e-05
2.52923955521e-05
2.41924266903e-05
2.3136983813e-05
2.21227022843e-05
2.11465181296e-05
2.02056289116e-05
1.92974614626e-05
1.84196450411e-05
1.75699887959e-05
1.6746462642e-05
1.59471808624e-05
1.51703878807e-05
1.44144457795e-05
1.36778232117e-05
1.29590854329e-05
1.22568852184e-05
1.15699544791e-05
1.08970964015e-05
1.02371779683e-05
9.58912270735e-06
8.95190352467e-06
8.32453544475e-06
7.70606804556e-06
7.0955772783e-06
6.49215621521e-06
5.8949039729e-06
5.30291156544e-06
4.71524253437e-06
4.1309046585e-06
3.54880641814e-06
2.96768782227e-06
2.38600979053e-06
1.80178180916e-06
1.21231088622e-06
6.1387730813e-07
9.34856829976e-08
0.000210567197804
0.000212940005632
0.000214205672059
0.000214317010353
0.000213655517527
0.000212557778449
0.00021125909539
0.000209900100075
0.000208554425828
0.00020725496152
0.00020601231132
0.00020482603268
0.000203690884108
0.00020260004992
0.000201546670023
0.000200524472501
0.000199527957869
0.000198552376209
0.000197593621629
0.000196648105014
0.000195712632652
0.000194784301326
0.000193860412137
0.000192938401697
0.000192015787913
0.000191090127164
0.000190158982981
0.000189219897305
0.000188270364373
0.000187307810704
0.000186329576651
0.000185332897619
0.000184314884666
0.000183272503698
0.000182202552424
0.000181101634169
0.000179966127454
0.000178792150008
0.000177575515507
0.000176311680826
0.000174995680952
0.000173622047938
0.000172184709473
0.000170676861986
0.00016909081309
0.000167417789487
0.000165647710351
0.000163768934943
0.000161768009046
0.00015962946021
0.000157335726034
0.000154867335728
0.000152203484086
0.000149323108749
0.000146206480227
0.0001428371558
0.000139204029513
0.000135303269279
0.000131140174539
0.000126731124901
0.000122105419223
0.000117305965934
0.000112387337385
0.000107410527063
0.000102435477444
9.75138950008e-05
9.26853962575e-05
8.7977846091e-05
8.34106594085e-05
7.89989692178e-05
7.47566035063e-05
7.06972340658e-05
6.6834028698e-05
6.31784654954e-05
5.97389177456e-05
5.65194113131e-05
5.35188288922e-05
5.07307819668e-05
4.81442368242e-05
4.57447496141e-05
4.35159777677e-05
4.14411070602e-05
3.95039495837e-05
3.76896306167e-05
3.5984907292e-05
3.4378220395e-05
3.28595855919e-05
3.14204082206e-05
3.00532770829e-05
2.87517683358e-05
2.75102736205e-05
2.63238564276e-05
2.51881353767e-05
2.40991908488e-05
2.30534908138e-05
2.20478319554e-05
2.10792927471e-05
2.01451957821e-05
1.92430772256e-05
1.83706617588e-05
1.75258417611e-05
1.67066597857e-05
1.59112936036e-05
1.51380432667e-05
1.43853197649e-05
1.36516349453e-05
1.29355924323e-05
1.22358793366e-05
1.15512585756e-05
1.08805616539e-05
1.02226817602e-05
9.5765670428e-06
8.94121390856e-06
8.31566015825e-06
7.69897770745e-06
7.09026452871e-06
6.48863525668e-06
5.89320956782e-06
5.30309689223e-06
4.71737509327e-06
4.1350592601e-06
3.55505445502e-06
2.97608303544e-06
2.39657352981e-06
1.81449611735e-06
1.22713417597e-06
6.3079726655e-07
1.06526518857e-07
0.000207539519066
0.000209767062528
0.000211111853344
0.000211477243024
0.000211138327314
0.000210360557886
0.000209346380118
0.000208228427894
0.00020708403772
0.000205953456147
0.000204854561152
0.000203792823134
0.000202767396674
0.000201774591378
0.000200809728485
0.000199868061936
0.000198945182659
0.000198037151115
0.000197140496033
0.000196252154383
0.000195369391722
0.000194489722095
0.000193610835907
0.000192730538523
0.000191846699594
0.000190957211839
0.000190059959944
0.000189152792621
0.000188233494842
0.000187299769492
0.000186349218758
0.000185379326116
0.000184387437975
0.000183370744139
0.000182326256252
0.000181250783263
0.000180140902772
0.000178992926844
0.000177802860424
0.000176566349876
0.000175278618369
0.000173934383738
0.000172527753251
0.000171052088358
0.000169499831584
0.000167862287912
0.000166129355889
0.000164289211848
0.000162327967679
0.000160229352679
0.000157974514877
0.00015554209083
0.000152908732394
0.000150050260156
0.000146943486194
0.000143568515537
0.000139911132042
0.000135964950159
0.000131733450597
0.000127232374235
0.000122492473154
0.000117561184791
0.000112500819551
0.000107382015336
0.00010227381734
9.72339766048e-05
9.2304087257e-05
8.75106904585e-05
8.28704317335e-05
7.83960496719e-05
7.41002023447e-05
6.99966238646e-05
6.6099341402e-05
6.24209408687e-05
5.89706847859e-05
5.57529115302e-05
5.27659922291e-05
5.00021348854e-05
4.74481772658e-05
4.50871717691e-05
4.29002911599e-05
4.08685624423e-05
3.89741242015e-05
3.72009377754e-05
3.55350435925e-05
3.39645138478e-05
3.24792424385e-05
3.1070673818e-05
2.97315315851e-05
2.84555766537e-05
2.72374053505e-05
2.60722872524e-05
2.49560378754e-05
2.38849199051e-05
2.2855566878e-05
2.18649240842e-05
2.09102024971e-05
1.99888424791e-05
1.90984848153e-05
1.82369472449e-05
1.74022051453e-05