/*--------------------------------*- C++ -*----------------------------------*\
  =========                 |
  \\      /  F ield         | OpenFOAM: The Open Source CFD Toolbox
   \\    /   O peration     | Website:  https://openfoam.org
    \\  /    A nd           | Version:  7
     \\/     M anipulation  |
\*---------------------------------------------------------------------------*/
FoamFile
{
    version     2.0;
    format      ascii;
    class       surfaceScalarField;
    location    "2580";
    object      phi;
}
// * * * * * * * * * * * * * * * * * * * * * * * * * * * * * * * * * * * * * //

dimensions      [0 3 -1 0 0 0 0];

internalField   nonuniform List<scalar> 
16192
(
6.92934689256e-10
2.44565310744e-10
4.93587064082e-10
1.99347622868e-10
3.64850214307e-10
1.28736847439e-10
2.82252711195e-10
8.25975007805e-11
2.27599291722e-10
5.46534170097e-11
1.89948267752e-10
3.76510214129e-11
1.62958755379e-10
2.69895097736e-11
1.42919431831e-10
2.00393209485e-11
1.27596956997e-10
1.53224722589e-11
1.15599515916e-10
1.1997438551e-11
1.06027054671e-10
9.57245876741e-12
9.82762344434e-11
7.75081781422e-12
9.19289672238e-11
6.34726486985e-12
8.66868219382e-11
5.24214300944e-12
8.23312006171e-11
4.35561911743e-12
7.86983933341e-11
3.63280516367e-12
7.56634760813e-11
3.03491521755e-12
7.31296197136e-11
2.53385443107e-12
7.10208048431e-11
2.10881303331e-12
6.9276739076e-11
1.74406404643e-12
6.78492344145e-11
1.42750305834e-12
6.66995757606e-11
1.14965718766e-12
6.57965766263e-11
9.02997805795e-13
6.51151211109e-11
6.81454345792e-13
6.46350561393e-11
4.80063961378e-13
6.43403405209e-11
2.94714790872e-13
6.42183850024e-11
1.21954873356e-13
6.42595365477e-11
-4.1151982747e-14
6.44566722812e-11
-1.97135964064e-13
6.48048772911e-11
-3.48205006067e-13
6.53011876304e-11
-4.96310102447e-13
6.59443837716e-11
-6.4319564137e-13
6.67348214782e-11
-7.90436945228e-13
6.767428948e-11
-9.3946694638e-13
6.87658838531e-11
-1.09159302522e-12
7.00138897051e-11
-1.24800417636e-12
7.142365984e-11
-1.40976813345e-12
7.30014796317e-11
-1.57781742673e-12
7.47544053255e-11
-1.75292296885e-12
7.6690061719e-11
-1.9356532695e-12
7.88163825195e-11
-2.12631728441e-12
8.11412753357e-11
-2.32488886988e-12
8.36721912009e-11
-2.53091150182e-12
8.64155790751e-11
-2.74338305989e-12
8.9376207184e-11
-2.96062286613e-12
9.2556339386e-11
-3.18012650415e-12
9.59547644259e-11
-3.39841892218e-12
9.95656931645e-11
-3.61092218418e-12
1.03377561066e-10
-3.81186096213e-12
1.0737180294e-10
-3.99423454658e-12
1.11521698166e-10
-4.14988758238e-12
1.15791416132e-10
-4.26971002677e-12
1.20135413208e-10
-4.34398894493e-12
1.2449834097e-10
-4.36291949042e-12
1.28815611283e-10
-4.31726205115e-12
1.33014728657e-10
-4.19910921932e-12
1.37017440262e-10
-4.00270376032e-12
1.40742674961e-10
-3.72522730392e-12
1.44110141532e-10
-3.36745987764e-12
1.4704434146e-10
-2.93419410641e-12
1.49478632251e-10
-2.4342861164e-12
1.51358889472e-10
-1.88025386743e-12
1.5264629849e-10
-1.28740724207e-12
1.53318902816e-10
-6.72604246478e-13
1.53371740975e-10
-5.28399410267e-14
1.52815673909e-10
5.56063437545e-13
1.51675258016e-10
1.14041040776e-12
1.49986150012e-10
1.6891008405e-12
1.47792500563e-10
2.19364073524e-12
1.45144668025e-10
2.64782255056e-12
1.4209738646e-10
3.04727049071e-12
1.38708345756e-10
3.38902883924e-12
1.35037032281e-10
3.67130100001e-12
1.31143655751e-10
3.89336371061e-12
1.270880291e-10
4.0556136342e-12
1.2292834816e-10
4.1596679479e-12
1.1871989968e-10
4.20843561489e-12
1.14513791248e-10
4.20609586347e-12
1.10355825597e-10
4.15795343406e-12
1.06285637026e-10
4.07017682293e-12
1.02336170786e-10
3.94945496843e-12
9.85335359935e-11
3.80262407042e-12
9.48972092452e-11
3.63631654806e-12
9.14405268895e-11
3.45667271739e-12
8.81713802172e-11
3.2691375459e-12
8.50930245988e-11
3.07834702564e-12
8.22049219014e-11
2.88809457798e-12
7.95035541264e-11
2.7013601424e-12
7.69831650661e-11
2.52038185146e-12
7.46364064523e-11
2.34675184051e-12
7.2454878966e-11
2.1815210876e-12
7.04295703076e-11
2.02530264796e-12
6.85511982283e-11
1.87836639996e-12
6.681047105e-11
1.74072184684e-12
6.5198278377e-11
1.61218763664e-12
6.37058254608e-11
1.4924481945e-12
6.23247224735e-11
1.38109853137e-12
6.10470393921e-11
1.27767891246e-12
5.9865334491e-11
1.18170097285e-12
5.87726638306e-11
1.09266699519e-12
5.77625766882e-11
1.01008369485e-12
5.682910163e-11
9.33471851377e-13
5.59667258998e-11
8.62372719341e-13
5.51703709473e-11
7.96352160209e-13
5.44353652515e-11
7.35003077721e-13
5.3757416025e-11
6.77946805344e-13
5.31325799583e-11
6.24833798291e-13
5.25572337562e-11
5.75344109374e-13
5.20280439029e-11
5.29187892636e-13
5.15419357329e-11
4.86106364998e-13
5.10960605562e-11
4.45873484572e-13
5.06877601383e-11
4.08298863385e-13
5.03145263277e-11
3.73232352282e-13
4.99739538713e-11
3.40571120371e-13
4.96636824626e-11
3.10270155079e-13
4.93813235397e-11
2.8235777965e-13
4.9124364116e-11
2.56958352869e-13
4.8890037377e-11
2.34325770943e-13
4.86751431586e-11
2.14893318329e-13
4.84757930965e-11
1.99349264789e-13
4.82870386415e-11
1.88753731673e-13
4.81023147984e-11
1.84723236332e-13
4.79125887701e-11
1.89725517683e-13
4.77050445897e-11
2.07543814826e-13
4.74611016264e-11
2.43942721233e-13
4.71538931318e-11
3.07208417735e-13
4.67474766285e-11
4.0641662222e-13
5.21412269316e-13
9.53420783872e-10
2.28644524755e-10
8.59654645707e-10
2.93113756416e-10
7.45077144165e-10
2.43314344285e-10
6.4183083205e-10
1.85843808009e-10
5.56545184561e-10
1.39939059396e-10
4.88021759334e-10
1.06174441426e-10
4.33242476044e-10
8.17687878208e-11
3.89257985918e-10
6.40238058613e-11
3.53657351761e-10
5.09231012664e-11
3.24585831286e-10
4.10689539682e-11
3.00645089145e-10
3.35131959538e-11
2.80783523677e-10
2.7612378446e-11
2.64205655432e-10
2.29251284026e-11
2.5030390776e-10
1.91438861077e-11
2.38609059409e-10
1.60504630395e-11
2.2875468275e-10
1.34871775544e-11
2.20451619798e-10
1.13379740729e-11
2.13469548566e-10
9.51592175622e-12
2.07623543502e-10
7.95481439214e-12
2.02764168424e-10
6.60343564447e-12
1.98770088276e-10
5.42157996266e-12
1.95542495502e-10
4.37724698087e-12
1.93000858365e-10
3.44463223585e-12
1.91079643849e-10
2.60266645541e-12
1.89725767252e-10
1.83393846729e-12
1.88896589938e-10
1.12389035665e-12
1.88558334625e-10
4.60208793144e-13
1.8868482167e-10
-1.67640034529e-13
1.89256453008e-10
-7.68767909529e-13
1.90259387573e-10
-1.35113974808e-12
1.91684865529e-10
-1.92178778937e-12
1.9352864588e-10
-2.48697524338e-12
1.95790526886e-10
-3.05231670713e-12
1.98473922768e-10
-3.62286105112e-12
2.01585471629e-10
-4.20313956002e-12
2.05134650296e-10
-4.79717992869e-12
2.09133370479e-10
-5.40848479572e-12
2.13595529224e-10
-6.03997200226e-12
2.18536483532e-10
-6.69387244429e-12
2.23972416447e-10
-7.3715806467e-12
2.29919558401e-10
-8.07345298565e-12
2.36393226038e-10
-8.79854950152e-12
2.43406639988e-10
-9.54431769337e-12
2.50969487002e-10
-1.03062215334e-11
2.59086199985e-10
-1.10773265391e-11
2.67753946561e-10
-1.18478629863e-11
2.76960342473e-10
-1.26048039881e-11
2.86680944705e-10
-1.33315128209e-11
2.96876628057e-10
-1.40075320273e-11
3.07491008508e-10
-1.46086020547e-11
3.18448138052e-10
-1.51070036254e-11
3.29650752073e-10
-1.54723100739e-11
3.40979385707e-10
-1.56726082974e-11
3.52292679965e-10
-1.56761993266e-11
3.6342915798e-10
-1.545372576e-11
3.74210665562e-10
-1.49806028785e-11
3.84447536651e-10
-1.42395616697e-11
3.93945372181e-10
-1.32230507539e-11
4.02513114024e-10
-1.1935191179e-11
4.09971870619e-10
-1.03929421076e-11
4.16163733662e-10
-8.62614297014e-12
4.20959676904e-10
-6.67619370124e-12
4.24265620572e-10
-4.59335064664e-12
4.26025942487e-10
-2.43292925126e-12
4.26224112007e-10
-2.51016023129e-13
4.2488062863e-10
1.89953686613e-12
4.22048913661e-10
3.97211223067e-12
4.17810059258e-10
5.92793926111e-12
4.12267313827e-10
7.73636774104e-12
4.05540961731e-10
9.3741542649e-12
3.97763909902e-10
1.08243004174e-11
3.8907797263e-10
1.20749431583e-11
3.79630638783e-10
1.31186112245e-11
3.69572046626e-10
1.39519319702e-11
3.59051951243e-10
1.45756851423e-11
3.48216601083e-10
1.49949945582e-11
3.37205583478e-10
1.52194301974e-11
3.26148813859e-10
1.52628431947e-11
3.15163898202e-10
1.51428476451e-11
3.04354089543e-10
1.4879964992e-11
2.93806993655e-10
1.44965313485e-11
2.83594084018e-10
1.40155152271e-11
2.73770985707e-10
1.34593973747e-11
2.64378408788e-10
1.28492331469e-11
2.55443562887e-10
1.22039678911e-11
2.46981871354e-10
1.15400239151e-11
2.38998815571e-10
1.0871136556e-11
2.31491771138e-10
1.02083915828e-11
2.2445173413e-10
9.56040660552e-12
2.17864873393e-10
8.93360103846e-12
2.1171387547e-10
8.33250812053e-12
2.05979073906e-10
7.76009395343e-12
2.00639370581e-10
7.21806004147e-12
1.95672967901e-10
6.70711540877e-12
1.91057935057e-10
6.22721187759e-12
1.86772634029e-10
5.77774113031e-12
1.82796029408e-10
5.35769552824e-12
1.79107904817e-10
4.9657963471e-12
1.75689005084e-10
4.60059397646e-12
1.72521121135e-10
4.26054464266e-12
1.69587130856e-10
3.94406806139e-12
1.66871007331e-10
3.64958985517e-12
1.64357802728e-10
3.3755721527e-12
1.62033614921e-10
3.12053515102e-12
1.59885541437e-10
2.88307206065e-12
1.57901624719e-10
2.66185933857e-12
1.56070790701e-10
2.45566390824e-12
1.54382782469e-10
2.26334871398e-12
1.52828089056e-10
2.08387792122e-12
1.51397869394e-10
1.91632288949e-12
1.50083869767e-10
1.75987018508e-12
1.4887833302e-10
1.6138329005e-12
1.47773895947e-10
1.47766690093e-12
1.46763470867e-10
1.3509938695e-12
1.45840105164e-10
1.23363369308e-12
1.44996811573e-10
1.12564938409e-12
1.44226359175e-10
1.02740892005e-12
1.4352101363e-10
9.39669658574e-13
1.42872212656e-10
8.63692797436e-13
1.42270163815e-10
8.01396800939e-13
1.41703357674e-10
7.5555876052e-13
1.41158014273e-10
7.30065763248e-13
1.40617549892e-10
7.30189280804e-13
1.400623381e-10
7.62755308026e-13
1.39470530117e-10
8.35750741859e-13
1.38821908672e-10
9.5583017555e-13
1.38110635784e-10
1.11768987485e-12
1.26553042904e-12
9.76223913803e-10
1.89920608619e-10
9.62942878157e-10
3.06394786955e-10
9.05948761163e-10
3.00308456162e-10
8.33400576985e-10
2.58391987042e-10
7.60295612391e-10
2.13044018692e-10
6.93051045991e-10
1.7341900244e-10
6.33744405911e-10
1.41075422491e-10
5.82486506192e-10
1.15281700197e-10
5.38599602216e-10
9.48099999101e-11
5.01166304744e-10
7.85022461842e-11
4.69268069813e-10
6.54114257126e-11
4.42076996552e-10
5.48034466335e-11
4.18881324263e-10
4.61207957203e-11
3.99082943367e-10
3.894226215e-11
3.82184632455e-10
3.29487692176e-11
3.67774864667e-10
2.78969407488e-11
3.55513399142e-10
2.35994351481e-11
3.45118765534e-10
1.9910551081e-11
3.36357833718e-10
1.6715742096e-11
3.29037298653e-10
1.39239667948e-11
3.22996796488e-10
1.14620784143e-11
3.18103360373e-10
9.27067961371e-12
3.14246956103e-10
7.30103325819e-12
3.11336880717e-10
5.51273885763e-12
3.09298848057e-10
3.87196841321e-12
3.08072621148e-10
2.3501148523e-12
3.07610079849e-10
9.22747981692e-13
3.07873635342e-10
-4.31197298524e-13
3.08834919313e-10
-1.73005331191e-12
3.10473690314e-10
-2.98991180128e-12
3.12776910814e-10
-4.22500896201e-12
3.15737953386e-10
-5.44801806514e-12
3.1935589917e-10
-6.67026231853e-12
3.23634895247e-10
-7.90185648489e-12
3.28583538094e-10
-9.15178129212e-12
3.34214250649e-10
-1.04278908454e-11
3.4054261838e-10
-1.1736850363e-11
3.47586648003e-10
-1.30839988822e-11
3.5536590878e-10
-1.44731298948e-11
3.63900513835e-10
-1.59061817389e-11
3.73209895662e-10
-1.73828302127e-11
3.83311329664e-10
-1.8899978215e-11
3.94218160923e-10
-2.04511429843e-11
4.05937697051e-10
-2.20257509663e-11
4.18468743401e-10
-2.36083654904e-11
4.31798781731e-10
-2.51778931771e-11
4.45900828859e-10
-2.67068422768e-11
4.60730062978e-10
-2.81607373793e-11
4.76220368327e-10
-2.94978271609e-11
4.92281024119e-10
-3.06692469787e-11
5.08793839422e-10
-3.1619807513e-11
5.25611103492e-10
-3.22895622284e-11
5.42554760357e-10
-3.2616252918e-11
5.59417214627e-10
-3.25386411394e-11
5.75964115102e-10
-3.20006138278e-11
5.91939343826e-10
-3.09558194559e-11
6.07072260134e-10
-2.93724664545e-11
6.21087026819e-10
-2.72378068366e-11
6.33713584147e-10
-2.45617392731e-11
6.44699557259e-10
-2.13789077022e-11
6.53822111306e-10
-1.77486916891e-11
6.60898580745e-10
-1.37526603231e-11
6.65794685371e-10
-9.48945535667e-12
6.68429393619e-10
-5.06764064462e-12
6.68775998414e-10
-5.97627183567e-13
6.66859623514e-10
3.81590230365e-12
6.62751980233e-10
8.07974309227e-12
6.56564530099e-10
1.21153744076e-11
6.48441184232e-10
1.5859696391e-11
6.3855138581e-10
1.92639337383e-11
6.27083985587e-10
2.22916803334e-11
6.14241920047e-10
2.49169875051e-11
6.00237447745e-10
2.71230617669e-11
5.85287629784e-10
2.89017280039e-11
5.696098151e-10
3.02534779718e-11
5.53417051788e-10
3.11877363977e-11
5.36913518795e-10
3.1722942257e-11
5.20290210372e-10
3.18861314381e-11
5.03721169457e-10
3.17118692018e-11
4.87360551492e-10
3.12405645472e-11
4.71340714422e-10
3.05163509479e-11
4.55771408826e-10
2.95848043505e-11
4.4074001379e-10
2.84907768746e-11
4.26312663385e-10
2.72765689657e-11
4.12536045767e-10
2.59805717845e-11
3.9943963893e-10
2.46364178846e-11
3.87038160874e-10
2.32726025033e-11
3.75334049882e-10
2.19124912146e-11
3.64319835577e-10
2.05746102035e-11
3.53980308852e-10
1.92731177059e-11
3.44294437964e-10
1.80183695124e-11
3.35237011141e-10
1.6817511845e-11
3.26780007799e-10
1.56750549413e-11
3.18893716586e-10
1.45933986788e-11
3.1154762585e-10
1.35732951034e-11
3.04711116954e-10
1.26142429657e-11
2.98353990219e-10
1.17148155926e-11
2.92446852703e-10
1.0872927604e-11
2.86961393153e-10
1.00860476228e-11
2.81870567194e-10
9.35136507433e-12
2.77148711338e-10
8.66591871419e-12
2.72771602132e-10
8.02669420437e-12
2.68716472773e-10
7.43069694585e-12
2.64961997875e-10
6.87500579838e-12
2.61488253747e-10
6.35681219976e-12
2.58276660615e-10
5.87344876429e-12
2.55309910503e-10
5.42241054346e-12
2.52571884035e-10
5.00137195838e-12
2.50047557142e-10
4.608201789e-12
2.47722898529e-10
4.24097870311e-12
2.45584756634e-10
3.89800945268e-12
2.4362073488e-10
3.5778522275e-12
2.41819051945e-10
3.27934755947e-12
2.40168383938e-10
3.00165978018e-12
2.38657683523e-10
2.74433214584e-12
2.37275971652e-10
2.50735946229e-12
2.36012096891e-10
2.29128201476e-12
2.34854460437e-10
2.0973046138e-12
2.3379070935e-10
1.9274425197e-12
2.32807413928e-10
1.78469104402e-12
2.31889769785e-10
1.67320189293e-12
2.31021417653e-10
1.59841711812e-12
2.30184572783e-10
1.56703360005e-12
2.29360844905e-10
1.58648293473e-12
2.28533451998e-10
1.66314375329e-12
2.27692027759e-10
1.79725480125e-12
2.26840364224e-10
1.96935391054e-12
2.10779979423e-12
9.71735164262e-10
1.5568544196e-10
9.86538817709e-10
2.91591128028e-10
9.67839977761e-10
3.19007290733e-10
9.27256456756e-10
2.98975502539e-10
8.7664810644e-10
2.63652363303e-10
8.23544879343e-10
2.26522223728e-10
7.72105080585e-10
1.92515215406e-10
7.24369624661e-10
1.63017150288e-10
6.81158777973e-10
1.38020840799e-10
6.4262862132e-10
1.17032397089e-10
6.0859675612e-10
9.94432852239e-11
5.78726086421e-10
8.46741107142e-11
5.52625149221e-10
7.22217273783e-11
5.29900665443e-10
6.1666740469e-11
5.10183300522e-10
5.26661287721e-11
4.93138726516e-10
4.49415094912e-11
4.78470849511e-10
3.82673070009e-11
4.65921047415e-10
3.24603481487e-11
4.55265539927e-10
2.73712446895e-11
4.46312037423e-10
2.28774645535e-11
4.3889626833e-10
1.88778429205e-11
4.32878680966e-10
1.52882625639e-11
4.28141449622e-10
1.20382603711e-11
4.24585826063e-10
9.06835838484e-12
4.2212983189e-10
6.32795876249e-12
4.20706265438e-10
3.77367770491e-12
4.20260987561e-10
1.36802249272e-12
4.20751448265e-10
-9.21661116919e-13
4.22145414597e-10
-3.12402249996e-12
4.24419865587e-10
-5.26436536778e-12
4.27560021504e-10
-7.36516716794e-12
4.31558473213e-10
-9.44647175424e-12
4.36414379791e-10
-1.15261705549e-11
4.42132702759e-10
-1.36201807649e-11
4.48723444134e-10
-1.57425236191e-11
4.56200853985e-10
-1.79053012584e-11
4.64582570405e-10
-2.01185669356e-11
4.73888651995e-10
-2.23900801809e-11
4.84140459314e-10
-2.47249364562e-11
4.95359338905e-10
-2.71250600673e-11
5.07565061068e-10
-2.95885505835e-11
5.20773962802e-10
-3.21088775843e-11
5.34996750536e-10
-3.46739277588e-11
5.50235926762e-10
-3.72649235966e-11
5.66482821433e-10
-3.98552559103e-11
5.83714237341e-10
-4.24093041444e-11
6.01888759672e-10
-4.48813589637e-11
6.20942837033e-10
-4.72148083709e-11
6.40786812828e-10
-4.93417958609e-11
6.61301169872e-10
-5.11835962005e-11
6.82333337703e-10
-5.26519668278e-11
7.03695488293e-10
-5.3651703645e-11
7.25163791143e-10
-5.40845460308e-11
7.46479594342e-10
-5.38544341541e-11
7.6735292673e-10
-5.28739357715e-11
7.87468575159e-10
-5.10714574056e-11
8.06494785834e-10
-4.83986669157e-11
8.24094385883e-10
-4.48373972766e-11
8.39937830046e-10
-4.04051748309e-11
8.53717358593e-10
-3.51584290627e-11
8.65161131813e-10
-2.91924595841e-11
8.74045960546e-10
-2.26374859983e-11
8.8020720389e-10
-1.56506982795e-11
8.83544674877e-10
-8.40511410109e-12
8.84024000155e-10
-1.07695795058e-12
8.8167368402e-10
6.16620998101e-12
8.76578876287e-10
1.31745395998e-11
8.68873254524e-10
1.98209825199e-11
8.58730391146e-10
2.60025440973e-11
8.46355599086e-10
3.16387085556e-11
8.31978705856e-10
3.66685551665e-11
8.15847725281e-10
4.10479489357e-11
7.9822311312e-10
4.47476543809e-11
7.79372233341e-10
4.77525881605e-11
7.59563770755e-10
5.00619211224e-11
7.39062023201e-10
5.16894649447e-11
7.18121212374e-10
5.26637346813e-11
6.96980109444e-10
5.30272167282e-11
6.75857341073e-10
5.28346207818e-11
6.54947715088e-10
5.21501746636e-11
6.34419797137e-10
5.10442539659e-11
6.14414819183e-10
4.9589768313e-11
5.95046848053e-10
4.7858734916e-11
5.76404023649e-10
4.59193811528e-11
5.58550606791e-10
4.38339772322e-11
5.41529558127e-10
4.16574558987e-11
5.2536538903e-10
3.94367616378e-11
5.10067069679e-10
3.72108012441e-11
4.95630832355e-10
3.50108387794e-11
4.82042761047e-10
3.28611808002e-11
4.69281103512e-10
3.07800193099e-11
4.57318278392e-10
2.87803296762e-11
4.46122575588e-10
2.68707508599e-11
4.35659565967e-10
2.50564018008e-11
4.25893246317e-10
2.33396086063e-11
4.16786950996e-10
2.17205324802e-11
4.08304062614e-10
2.01976984839e-11
4.00408553454e-10
1.87684315843e-11
3.9306538643e-10
1.74292097552e-11
3.86240801547e-10
1.61759453507e-11
3.7990250992e-10
1.50042060007e-11
3.74019814355e-10
1.39093856909e-11
3.68563671881e-10
1.28868355847e-11
3.63506711055e-10
1.19319630291e-11
3.58823213915e-10
1.10403059635e-11
3.54489070573e-10
1.02075889464e-11
3.504817121e-10
9.4297660531e-12
3.46780026073e-10
8.70305521591e-12
3.43364257301e-10
8.02396796366e-12
3.40215895396e-10
7.38933818264e-12
3.37317549346e-10
6.79635323095e-12
3.3465280876e-10
6.24259069462e-12
3.32206090324e-10
5.72606401477e-12
3.29962467959e-10
5.24528030309e-12
3.27907484834e-10
4.79931355725e-12
3.26026946522e-10
4.38789619308e-12
3.24306696388e-10
4.01153069366e-12
3.2273237902e-10
3.67162066341e-12
3.21289205441e-10
3.37061491955e-12
3.19961748816e-10
3.1121466521e-12
3.18733824019e-10
2.90112585302e-12
3.17588545696e-10
2.74369483178e-12
3.16508722172e-10
2.646856778e-12
3.15477827077e-10
2.6173779931e-12
3.14481856275e-10
2.65911480577e-12
3.1351213726e-10
2.76697426676e-12
3.12567376644e-10
2.91411501442e-12
3.02960788498e-12
9.63901412551e-10
1.2928402653e-10
9.87529012099e-10
2.67963522393e-10
9.8941042719e-10
3.17125869633e-10
9.71634351058e-10
3.16751572668e-10
9.41149566626e-10
2.9413714158e-10
9.04005043995e-10
2.63666740107e-10
8.64398175357e-10
2.32122077757e-10
8.24978570458e-10
2.02436748902e-10
7.87304487625e-10
1.75694917371e-10
7.52216384771e-10
1.5212049372e-10
7.20101523929e-10
1.31558139888e-10
6.91070811527e-10
1.13704816991e-10
6.65073379828e-10
9.8219153009e-11
6.41969285592e-10
8.4770828702e-11
6.2157479512e-10
7.30606133117e-11
6.03690024564e-10
6.28262741967e-11
5.88115360614e-10
5.38419651882e-11
5.74660823358e-10
4.59148797425e-11
5.63151040355e-10
3.88810221375e-11
5.53427531398e-10
3.26009680763e-11
5.45349379227e-10
2.69559897838e-11
5.38792962176e-10
2.18446744492e-11
5.33651170008e-10
1.71800475205e-11
5.29832362445e-10
1.28871610903e-11
5.27259226989e-10
8.9010895271e-12
5.2586762763e-10
5.16527255467e-12
5.25605494592e-10
1.63015120717e-12
5.26431779388e-10
-1.7479500368e-12
5.28315479115e-10
-5.00772614313e-12
5.31234731305e-10
-8.18362125276e-12
5.3517596781e-10
-1.13064071396e-11
5.40133109483e-10
-1.44036166465e-11
5.46106781712e-10
-1.74998457461e-11
5.5310352709e-10
-2.06169288279e-11
5.61134987719e-10
-2.37739866394e-11
5.70217026099e-10
-2.69873417092e-11
5.80368749557e-10
-3.02702921242e-11
5.91611399307e-10
-3.3632731286e-11
6.0396706116e-10
-3.70805992614e-11
6.174571517e-10
-4.06151511147e-11
6.3210063138e-10
-4.42320302947e-11
6.4791189628e-10
-4.7920141991e-11
6.64898303876e-10
-5.1660334302e-11
6.83057297927e-10
-5.54239159856e-11
7.02373115092e-10
-5.91710707701e-11
7.22813085013e-10
-6.28492710687e-11
7.44323578438e-10
-6.63918486706e-11
7.66825717951e-10
-6.97169434025e-11
7.90211042709e-10
-7.27271153565e-11
8.14337410437e-10
-7.53099578584e-11
8.39025517288e-10
-7.73400668088e-11
8.64056504591e-10
-7.868268329e-11
8.89171177573e-10
-7.91992106372e-11
9.14071361215e-10
-7.87546087931e-11
9.38423841799e-10
-7.72264068985e-11
9.61867185938e-10
-7.45147918411e-11
9.84021502892e-10
-7.05529742242e-11
1.00450094278e-09
-6.5316827911e-11
1.02292841181e-09
-5.88326354363e-11
1.03895163393e-09
-5.11816439908e-11
1.05225930482e-09
-4.25001250248e-11
1.06259575079e-09
-3.29739286687e-11
1.06977238325e-09
-2.28273300191e-11
1.07367451448e-09
-1.23072474646e-11
1.07426282362e-09
-1.66527222601e-12
1.07156976956e-09
8.85925596517e-12
1.06569219388e-09
1.90521044713e-11
1.05678186215e-09
2.87313010782e-11
1.04503561109e-09
3.77487800704e-11
1.03068624634e-09
4.59880567532e-11
1.01399463293e-09
5.33601509943e-11
9.95242836129e-10
5.97997275073e-11
9.7472786259e-10
6.52626093879e-11
9.52755523995e-10
6.97249082321e-11
9.29634112619e-10
7.31833142296e-11
9.05667832622e-10
7.56557271591e-11
8.81150181387e-10
7.71813687876e-11
8.5635765832e-10
7.78197234629e-11
8.31544253569e-10
7.76480100808e-11
8.06937126996e-10
7.67572867236e-11
7.82733749277e-10
7.52476181172e-11
7.59100590445e-10
7.32229145196e-11
7.36173259031e-10
7.07860546e-11
7.14057858855e-10
6.80347704546e-11
6.92833256783e-10
6.5058569213e-11
6.72553941251e-10
6.1936762068e-11
6.532531806e-10
5.87375135785e-11
6.34946244481e-10
5.55177292496e-11
6.17633512917e-10
5.23235627574e-11
6.01303356332e-10
4.919133028e-11
5.85934718787e-10
4.61486501744e-11
5.7149937499e-10
4.32156671833e-11
5.57963858615e-10
4.04062612927e-11
5.45291077735e-10
3.7729177067e-11
5.33441643642e-10
3.51890373809e-11
5.22374944989e-10
3.27872260995e-11
5.12050000524e-10
3.05226381775e-11
5.02426123159e-10
2.83923044361e-11
4.93463425549e-10
2.63919030919e-11
4.8512319453e-10
2.45161723338e-11
4.77368158101e-10
2.27592386145e-11
4.70162665466e-10
2.11148747313e-11
4.6347279715e-10
1.95767005094e-11
4.57266419486e-10
1.81383375058e-11
4.5151319483e-10
1.67935276158e-11
4.46184556816e-10
1.55362241422e-11
4.41253657604e-10
1.43606626128e-11
4.36695292661e-10
1.32614176723e-11
4.32485806787e-10
1.22334514978e-11
4.28602984158e-10
1.12721586209e-11
4.25025923811e-10
1.03734115182e-11
4.2173490153e-10
9.53361104914e-12
4.18711218261e-10
8.74974547799e-12
4.15937035353e-10
8.01946152789e-12
4.13395197069e-10
7.34115027233e-12
4.11069042239e-10
6.71404957449e-12
4.08942209151e-10
6.13836244768e-12
4.06998442239e-10
5.61538636975e-12
4.05221415878e-10
5.14764020599e-12
4.03594601679e-10
4.73895993215e-12
4.0210122138e-10
4.39450540998e-12
4.00724349119e-10
4.12056657629e-12
3.99447249894e-10
3.92395575401e-12
3.9825404724e-10
3.81058072368e-12
3.97130724006e-10
3.78243842656e-12
3.9606600504e-10
3.83169375637e-12
3.95050018765e-10
3.93010178349e-12
4.01411659818e-12
9.57494924369e-10
1.09289099159e-10
9.82349093097e-10
2.43109347296e-10
9.9461583872e-10
3.048591178e-10
9.91561171723e-10
3.19806233334e-10
9.7633997263e-10
3.09358334142e-10
9.53061419428e-10
2.86945286675e-10
9.25183327091e-10
2.60000163428e-10
8.95243752117e-10
2.32376317213e-10
8.64984228569e-10
2.05954434277e-10
8.35542825176e-10
1.815618905e-10
8.07626231084e-10
1.59474727403e-10
7.81642824908e-10
1.39688216628e-10
7.57799783263e-10
1.22062188158e-10
7.36171888459e-10
1.06398717059e-10
7.16749413488e-10
9.24830818886e-11
6.99471006614e-10
8.01046747388e-11
6.84246007537e-10
6.90669580001e-11
6.70969401124e-10
5.91914799694e-11
6.59531684311e-10
5.03187328485e-11
6.49825242914e-10
4.2307403466e-11
6.41748349965e-10
3.50328768266e-11
6.35207555247e-10
2.83854633729e-11
6.30118996352e-10
2.22686007387e-11
6.26408995076e-10
1.65971568173e-11
6.24014187221e-10
1.12958919674e-11
6.22881353646e-10
6.29810085823e-12
6.22967064487e-10
1.54443524287e-12
6.24237209781e-10
-3.01810029337e-12
6.26666457537e-10
-7.43697869672e-12
6.30237674694e-10
-1.175484303e-11
6.34941318206e-10
-1.60100550863e-11
6.40774796501e-10
-2.02370991759e-11
6.47741795007e-10
-2.44668482735e-11
6.55851552208e-10
-2.87266898181e-11
6.6511806654e-10
-3.30405045095e-11
6.75559208957e-10
-3.74284873853e-11
6.871957107e-10
-4.19067968226e-11
7.00049990868e-10
-4.64870140646e-11
7.14144783597e-10
-5.11753942225e-11
7.29501520781e-10
-5.5971890104e-11
7.46138423321e-10
-6.08689341686e-11
7.64068253409e-10
-6.58499728854e-11
7.83295683121e-10
-7.08877642425e-11
8.03814243053e-10
-7.59424755083e-11
8.25602830959e-10
-8.0959657579e-11
8.48621788038e-10
-8.58682263014e-11
8.72808592782e-10
-9.0578650774e-11
8.98073283233e-10
-9.49816303638e-11
9.24293799459e-10
-9.89476272075e-11
9.5131153839e-10
-1.02327691488e-10
9.78927524326e-10
-1.04956046504e-10
1.0068997046e-09
-1.06654856376e-10
1.03494195407e-09
-1.07241452038e-10
1.06272538415e-09
-1.06538029982e-10
1.08988247475e-09
-1.04383487955e-10
1.11601437681e-09
-1.00646683929e-10
1.14070148585e-09
-9.52400731629e-11
1.16351709645e-09
-8.81324286744e-11
1.18404362362e-09
-7.9359153492e-11
1.2018904947e-09
-6.90285071452e-11
1.21671235347e-09
-5.73219776153e-11
1.22822575294e-09
-4.44873242121e-11
1.2362222676e-09
-3.08238434633e-11
1.24057621356e-09
-1.66611952801e-11
1.2412460439e-09
-2.33510764011e-12
1.23826978164e-09
1.1835509983e-11
1.23175608411e-09
2.55657908716e-11
1.22187316413e-09
3.86142074885e-11
1.20883763664e-09
5.07842920794e-11
1.19290461058e-09
6.19210659341e-11
1.1743594082e-09
7.19053355643e-11
1.15351057079e-09
8.06485465843e-11
1.13068348124e-09
8.80896804166e-11
1.10621396587e-09
9.4194405199e-11
1.08044149274e-09
9.89557693161e-11
1.0537019195e-09
1.02395282939e-10
1.02632005473e-09
1.0456321684e-10
9.98602515631e-10
1.05537246735e-10
9.70831447638e-10
1.05419063201e-10
9.43259608627e-10
1.04329111872e-10
9.16107139349e-10
1.02400074541e-10
8.89560107256e-10
9.97699347519e-11
8.63770690434e-10
9.65754605028e-11
8.38858712605e-10
9.29467382525e-11
8.14914165174e-10
8.90031074229e-11
7.92000349273e-10
8.48505694913e-11
7.70157315354e-10
8.05805396808e-11
7.494053462e-10
7.62696911812e-11
7.29748301247e-10
7.1980601009e-11
7.11176705135e-10
6.77629201551e-11
6.93670515537e-10
6.36548339382e-11
6.77201544387e-10
5.96846328623e-11
6.61735533369e-10
5.58722671575e-11
6.47233901965e-10
5.22308036095e-11
6.33655196113e-10
4.87677386324e-11
6.20956270454e-10
4.54861474047e-11
6.0909323821e-10
4.23856662924e-11
5.98022221874e-10
3.94633168615e-11
5.87699935361e-10
3.67141858976e-11
5.78084125379e-10
3.41319788085e-11
5.69133896275e-10
3.17094643992e-11
5.60809939426e-10
2.94388284452e-11
5.53074684935e-10
2.73119520379e-11
5.45892390603e-10
2.53206290463e-11
5.39229180396e-10
2.34567351879e-11
5.3305304247e-10
2.17123595879e-11
5.2733379463e-10
2.00799081155e-11
5.22043023541e-10
1.85521865618e-11
5.17154002397e-10
1.71224705696e-11
5.12641590647e-10
1.57845684225e-11
5.08482118302e-10
1.45328820276e-11
5.04653256731e-10
1.33624708981e-11
5.01133877288e-10
1.22691233027e-11
4.97903899182e-10
1.12494381227e-11
4.94944128198e-10
1.03009198444e-11
4.92236089045e-10
9.42208742212e-12
4.89761855725e-10
8.6125945651e-12
4.87503887446e-10
7.87335356227e-12
4.85444881725e-10
7.20664496138e-12
4.83567662452e-10
6.61617838329e-12
4.81855127556e-10
6.10703965048e-12
4.80290286933e-10
5.68540675415e-12
4.78856417403e-10
5.35782509199e-12
4.77537322244e-10
5.1296759881e-12
4.76317531579e-10
5.00222948706e-12
4.75181817119e-10
4.96740874226e-12
4.74112339182e-10
4.99958020491e-12
5.04575431165e-12
9.52864137511e-10
9.39249583001e-11
9.76248993544e-10
2.19724484507e-10
9.9331683338e-10
2.87791271325e-10
9.99367479636e-10
3.13755580456e-10
9.95039266413e-10
3.13686540594e-10
9.82748480352e-10
2.99236065879e-10
9.65041677993e-10
2.77706958907e-10
9.44053876658e-10
2.53364111676e-10
9.21417106146e-10
2.28591197939e-10
8.98317634753e-10
2.04661355072e-10
8.75586973731e-10
1.82205381636e-10
8.53788081941e-10
1.61487101662e-10
8.33286409817e-10
1.42563853562e-10
8.14305142548e-10
1.25379977647e-10
7.96966908935e-10
1.09821308867e-10
7.81324728833e-10
9.57468482559e-11
7.67384703085e-10
8.30069772223e-11
7.55122490287e-10
7.14536863063e-11
7.44495165168e-10
6.09460515802e-11
7.35449672698e-10
5.13528896293e-11
7.27928788916e-10
4.255375439e-11
7.21875265415e-10
3.44389807518e-11
7.17234656953e-10
2.69092031808e-11
7.1395719861e-10
1.98746092512e-11
7.11998999742e-10
1.32540850429e-11
7.1132274852e-10
6.97434641237e-12
7.11898066081e-10
9.69112144535e-13
7.13701608514e-10
-4.82164812593e-12
7.16716981258e-10
-1.0452356694e-11
7.20934524045e-10
-1.59723909165e-11
7.26350985159e-10
-2.14265211338e-11
7.3296910138e-10
-2.68552201535e-11
7.40797088613e-10
-3.22948400701e-11
7.49848038954e-10
-3.77776445133e-11
7.60139212226e-10
-4.33316819023e-11
7.71691203127e-10
-4.89804821477e-11
7.8452695881e-10
-5.47425560739e-11
7.98670615765e-10
-6.06306742571e-11
8.14146119331e-10
-6.66509006498e-11
8.30975584238e-10
-7.28013574474e-11
8.49177350671e-10
-7.90707025557e-11
8.68763688267e-10
-8.5436311896e-11
8.8973810142e-10
-9.18621782061e-11
9.12092195085e-10
-9.82965693165e-11
9.35802073623e-10
-1.04669535528e-10
9.6082426965e-10
-1.10890420946e-10
9.87091239769e-10
-1.16845618655e-10
1.01450652441e-09
-1.22396911859e-10