/*--------------------------------*- C++ -*----------------------------------*\
  =========                 |
  \\      /  F ield         | OpenFOAM: The Open Source CFD Toolbox
   \\    /   O peration     | Website:  https://openfoam.org
    \\  /    A nd           | Version:  7
     \\/     M anipulation  |
\*---------------------------------------------------------------------------*/
FoamFile
{
    version     2.0;
    format      ascii;
    class       volScalarField;
    location    "3180";
    object      Ci;
}
// * * * * * * * * * * * * * * * * * * * * * * * * * * * * * * * * * * * * * //

dimensions      [0 -3 0 0 1 0 0];

internalField   nonuniform List<scalar> 
8192
(
9.999999993
10.0000000252
10.0000000872
10.0000001798
10.0000003057
10.0000004554
10.0000006266
10.0000008113
10.0000010047
10.0000012021
10.0000014013
10.0000015988
10.0000017937
10.0000019829
10.0000021663
10.000002341
10.0000025073
10.0000026624
10.000002807
10.0000029381
10.0000030566
10.0000031593
10.000003248
10.0000033195
10.0000033761
10.0000034147
10.0000034377
10.000003442
10.0000034302
10.0000033985
10.0000033497
10.0000032794
10.0000031904
10.0000030778
10.000002944
10.0000027837
10.0000025993
10.0000023852
10.0000021442
10.0000018703
10.0000015683
10.0000012345
10.0000008754
10.0000004885
10.0000000813
9.99999965159
9.9999992075
9.99999874651
9.9999982775
9.99999779799
9.99999731793
9.99999683563
9.99999636304
9.9999959002
9.99999546186
9.99999505036
9.99999468339
9.9999943651
9.99999411503
9.99999393756
9.99999385206
9.99999386117
9.99999398214
9.99999421428
9.99999457111
9.99999504711
9.99999565006
9.99999636778
9.99999720062
9.99999812915
9.99999914685
10.0000002292
10.000001366
10.0000025315
10.0000037154
10.0000048942
10.0000060601
10.000007194
10.0000082921
10.0000093406
10.0000103401
10.0000112818
10.00001217
10.0000129999
10.0000137784
10.0000145032
10.0000151824
10.000015815
10.0000164087
10.0000169617
10.0000174764
10.0000179521
10.0000183969
10.0000188117
10.0000192036
10.0000195722
10.0000199224
10.0000202521
10.0000205646
10.0000208568
10.0000211307
10.0000213826
10.0000216139
10.000021821
10.000022005
10.0000221626
10.0000222949
10.0000223993
10.000022477
10.0000225259
10.0000225475
10.0000225404
10.0000225064
10.0000224443
10.0000223561
10.0000222412
10.0000221014
10.0000219362
10.0000217472
10.0000215336
10.0000212967
10.0000210358
10.0000207529
10.0000204502
10.000020135
10.0000198192
10.0000195284
10.0000193222
9.99999999234
10.0000000514
10.0000001181
10.0000002031
10.0000003121
10.0000004426
10.000000592
10.0000007557
10.0000009305
10.0000011122
10.0000012986
10.000001486
10.0000016732
10.000001857
10.0000020367
10.0000022095
10.0000023753
10.0000025314
10.0000026782
10.000002813
10.000002936
10.0000030446
10.0000031398
10.0000032191
10.0000032842
10.0000033325
10.0000033662
10.0000033825
10.0000033836
10.0000033668
10.000003334
10.000003282
10.0000032128
10.0000031227
10.0000030136
10.0000028811
10.0000027272
10.0000025472
10.0000023431
10.0000021094
10.0000018506
10.0000015649
10.000001258
10.0000009283
10.0000005816
10.0000002158
9.99999983658
9.99999944096
9.99999903444
9.99999861396
9.99999818588
9.99999774821
9.99999730954
9.99999687029
9.99999644224
9.9999960288
9.99999564497
9.99999529658
9.99999500057
9.99999476356
9.99999460251
9.99999452296
9.99999454007
9.99999465679
9.99999488499
9.99999522356
9.99999567942
9.99999624576
9.99999692307
9.99999769821
9.99999856558
9.99999950716
10.0000005135
10.0000015645
10.0000026496
10.0000037493
10.0000048542
10.0000059472
10.0000070217
10.0000080643
10.0000090719
10.0000100351
10.0000109544
10.0000118241
10.0000126474
10.0000134212
10.0000141504
10.0000148339
10.0000154773
10.0000160798
10.0000166338
10.0000171445
10.0000176213
10.0000180665
10.0000184865
10.0000188816
10.0000192558
10.000019608
10.0000199408
10.000020252
10.0000205429
10.0000208111
10.0000210573
10.0000212789
10.0000214764
10.0000216476
10.0000217931
10.0000219108
10.0000220017
10.0000220643
10.0000220997
10.0000221068
10.0000220872
10.0000220402
10.0000219674
10.0000218684
10.0000217449
10.0000215966
10.0000214248
10.0000212291
10.0000210105
10.0000207685
10.0000205048
10.0000202208
10.0000199212
10.0000196152
10.0000193182
10.0000190798
9.99999999208
10.0000000742
10.000000149
10.0000002216
10.0000003059
10.0000004036
10.0000005149
10.0000006384
10.0000007742
10.0000009194
10.0000010733
10.0000012325
10.0000013962
10.0000015608
10.0000017257
10.0000018875
10.0000020462
10.0000021983
10.0000023446
10.0000024811
10.0000026086
10.0000027238
10.0000028286
10.0000029199
10.0000030003
10.0000030668
10.0000031226
10.0000031645
10.0000031958
10.0000032134
10.0000032207
10.000003214
10.000003197
10.0000031655
10.0000031228
10.0000030643
10.0000029933
10.0000029042
10.0000028003
10.0000026754
10.0000025331
10.0000023679
10.0000021838
10.0000019749
10.0000017456
10.0000014894
10.0000012112
10.0000009049
10.0000005767
10.0000002216
9.9999998479
9.99999945237
9.99999904598
9.99999862766
9.99999821106
9.99999779703
9.99999740144
9.99999702639
9.99999668897
9.99999639154
9.9999961512
9.99999596958
9.99999586281
9.99999583104
9.99999588851
9.99999603304
9.99999627574
9.99999661086
9.99999704494
9.99999756779
9.99999818102
9.99999887045
9.9999996338
10.0000004544
10.0000013275
10.0000022356
10.0000031732
10.0000041231
10.0000050803
10.0000060298
10.0000069681
10.000007883
10.0000087735
10.0000096304
10.0000104552
10.0000112415
10.0000119926
10.0000127045
10.0000133815
10.000014021
10.0000146258
10.0000151937
10.0000157304
10.000016235
10.0000167123
10.000017161
10.0000175849
10.0000179819
10.0000183552
10.0000187023
10.0000190254
10.0000193222
10.0000195945
10.0000198398
10.0000200599
10.0000202526
10.0000204194
10.0000205587
10.0000206719
10.0000207577
10.0000208177
10.0000208511
10.0000208596
10.0000208425
10.0000208017
10.0000207368
10.0000206497
10.0000205401
10.0000204096
10.0000202577
10.0000200856
10.0000198928
10.0000196806
10.0000194498
10.0000192018
10.0000189427
10.0000186762
10.0000184499
9.99999999209
10.0000000933
10.0000001733
10.000000246
10.0000003228
10.0000004067
10.0000004998
10.0000006003
10.0000007089
10.0000008249
10.0000009484
10.0000010778
10.0000012126
10.0000013509
10.0000014919
10.0000016335
10.0000017749
10.0000019142
10.0000020509
10.000002183
10.0000023101
10.0000024306
10.0000025447
10.0000026511
10.0000027506
10.0000028421
10.0000029267
10.0000030035
10.0000030738
10.0000031363
10.0000031925
10.0000032409
10.0000032827
10.0000033158
10.000003341
10.0000033559
10.0000033608
10.0000033523
10.0000033304
10.0000032914
10.0000032349
10.0000031571
10.0000030579
10.0000029334
10.0000027842
10.0000026069
10.000002403
10.0000021704
10.000001912
10.0000016273
10.000001321
10.000000994
10.0000006529
10.0000002999
9.99999994283
9.99999958513
9.99999923571
9.99999889882
9.99999858401
9.99999829591
9.99999804416
9.99999783315
9.99999767206
9.99999756459
9.99999751895
9.9999975376
9.99999762696
9.9999977873
9.99999802228
9.9999983292
9.9999987087
9.99999915535
9.99999966738
10.0000002374
10.0000008619
10.0000015321
10.0000022433
10.0000029857
10.0000037537
10.0000045376
10.0000053318
10.0000061271
10.000006919
10.0000076995
10.0000084655
10.0000092108
10.0000099339
10.0000106303
10.0000113
10.00001194
10.0000125509
10.0000131311
10.0000136824
10.000014204
10.0000146979
10.0000151633
10.0000156018
10.0000160128
10.0000163974
10.0000167548
10.0000170861
10.0000173904
10.0000176688
10.0000179204
10.0000181461
10.0000183456
10.0000185195
10.0000186678
10.0000187913
10.00001889
10.000018965
10.0000190165
10.0000190456
10.0000190527
10.0000190391
10.0000190052
10.0000189523
10.000018881
10.0000187922
10.0000186864
10.0000185641
10.0000184254
10.0000182703
10.0000181003
10.0000179136
10.0000177186
10.0000174988
10.0000173464
9.99999999958
10.0000001184
10.0000002159
10.0000002941
10.0000003691
10.0000004464
10.0000005288
10.0000006179
10.0000007126
10.0000008123
10.0000009175
10.0000010274
10.0000011422
10.0000012606
10.0000013824
10.0000015062
10.0000016317
10.0000017575
10.0000018832
10.0000020076
10.0000021305
10.0000022508
10.0000023685
10.0000024827
10.0000025939
10.0000027011
10.0000028052
10.000002905
10.0000030015
10.0000030935
10.0000031819
10.0000032652
10.0000033439
10.0000034161
10.0000034821
10.0000035395
10.0000035879
10.0000036245
10.0000036487
10.0000036572
10.0000036492
10.0000036214
10.0000035732
10.0000035015
10.0000034066
10.000003286
10.0000031408
10.0000029697
10.0000027753
10.0000025574
10.0000023197
10.0000020631
10.0000017925
10.0000015098
10.0000012206
10.0000009276
10.0000006376
10.0000003539
10.0000000841
9.99999983193
9.9999996052
9.99999940759
9.99999924642
9.99999912469
9.99999904872
9.99999902036
9.99999904436
9.99999912074
9.99999925213
9.99999943644
9.99999967425
9.99999996198
10.0000002991
10.0000006812
10.0000011074
10.0000015728
10.0000020757
10.0000026109
10.0000031758
10.0000037647
10.0000043744
10.0000049988
10.0000056344
10.0000062752
10.0000069177
10.0000075565
10.0000081886
10.0000088093
10.0000094162
10.0000100057
10.0000105762
10.0000111251
10.0000116516
10.000012154
10.0000126322
10.000013085
10.0000135128
10.0000139144
10.0000142905
10.0000146404
10.0000149645
10.0000152626
10.0000155353
10.0000157825
10.0000160049
10.0000162025
10.0000163763
10.0000165265
10.0000166541
10.0000167595
10.0000168437
10.0000169073
10.0000169514
10.0000169766
10.0000169842
10.0000169748
10.0000169495
10.0000169091
10.0000168545
10.0000167862
10.0000167046
10.0000166101
10.0000165017
10.0000163818
10.0000162442
10.0000161073
10.0000159241
10.0000158462
9.99999999989
10.00000013
10.0000002344
10.0000003224
10.0000004045
10.0000004849
10.0000005666
10.0000006515
10.000000741
10.000000834
10.0000009303
10.0000010297
10.0000011325
10.0000012383
10.0000013471
10.0000014581
10.0000015712
10.0000016855
10.0000018009
10.0000019165
10.0000020324
10.0000021477
10.0000022625
10.0000023762
10.0000024889
10.0000026
10.0000027099
10.0000028177
10.0000029239
10.0000030275
10.0000031287
10.0000032265
10.0000033207
10.0000034099
10.0000034938
10.0000035704
10.000003639
10.0000036973
10.0000037444
10.0000037776
10.0000037958
10.0000037964
10.0000037786
10.0000037397
10.0000036796
10.0000035963
10.0000034904
10.000003361
10.0000032096
10.0000030363
10.0000028437
10.0000026328
10.0000024071
10.0000021685
10.0000019213
10.0000016686
10.0000014156
10.0000011666
10.0000009275
10.0000007036
10.0000005013
10.0000003254
10.0000001816
10.0000000739
10.0000000063
9.99999998105
10.0000000002
10.0000000637
10.0000001712
10.0000003204
10.0000005095
10.0000007348
10.0000009943
10.0000012845
10.0000016041
10.0000019499
10.0000023211
10.0000027147
10.00000313
10.0000035641
10.0000040158
10.0000044822
10.0000049619
10.0000054514
10.000005949
10.000006451
10.0000069555
10.0000074587
10.0000079586
10.0000084517
10.0000089361
10.0000094088
10.0000098681
10.0000103117
10.0000107383
10.0000111461
10.0000115342
10.0000119013
10.0000122469
10.0000125702
10.000012871
10.0000131487
10.0000134037
10.0000136358
10.0000138454
10.0000140326
10.0000141983
10.0000143427
10.0000144668
10.000014571
10.0000146565
10.0000147238
10.0000147741
10.0000148081
10.000014827
10.0000148316
10.0000148229
10.0000148018
10.0000147691
10.0000147257
10.0000146715
10.0000146079
10.000014532
10.0000144497
10.0000143454
10.0000142562
10.0000140953
10.000014085
10.0000000048
10.0000001437
10.0000002622
10.0000003567
10.0000004417
10.0000005229
10.0000006036
10.000000686
10.0000007711
10.0000008597
10.0000009508
10.0000010438
10.0000011391
10.0000012365
10.0000013362
10.0000014378
10.0000015413
10.0000016462
10.0000017524
10.0000018595
10.0000019673
10.0000020756
10.0000021841
10.0000022926
10.000002401
10.000002509
10.0000026167
10.0000027235
10.0000028295
10.000002934
10.000003037
10.0000031375
10.0000032354
10.0000033293
10.0000034188
10.0000035022
10.0000035789
10.0000036465
10.0000037045
10.0000037502
10.0000037826
10.0000037993
10.0000037991
10.00000378
10.0000037409
10.0000036806
10.0000035987
10.0000034946
10.0000033688
10.0000032219
10.0000030551
10.00000287
10.0000026687
10.0000024537
10.000002228
10.0000019953
10.0000017599
10.0000015267
10.0000013015
10.0000010903
10.0000008993
10.0000007346
10.0000006017
10.0000005051
10.0000004486
10.0000004343
10.0000004634
10.0000005352
10.0000006479
10.0000007985
10.0000009834
10.0000011983
10.0000014395
10.0000017032
10.0000019865
10.0000022866
10.0000026013
10.0000029288
10.0000032675
10.000003616
10.0000039733
10.0000043384
10.0000047105
10.0000050885
10.0000054716
10.0000058584
10.0000062477
10.000006638
10.0000070278
10.0000074154
10.000007799
10.0000081768
10.000008547
10.0000089078
10.0000092576
10.0000095948
10.0000099181
10.000010226
10.0000105175
10.0000107918
10.000011048
10.0000112857
10.0000115045
10.0000117041
10.0000118847
10.0000120463
10.0000121893
10.0000123141
10.0000124213
10.0000125116
10.0000125857
10.0000126444
10.0000126886
10.0000127193
10.0000127375
10.000012744
10.0000127398
10.0000127261
10.0000127033
10.0000126727
10.0000126338
10.0000125892
10.0000125333
10.0000124776
10.000012395
10.0000123438
10.0000121979
10.0000122404
10.0000000017
10.0000001444
10.0000002646
10.0000003668
10.0000004593
10.000000546
10.00000063
10.0000007137
10.0000007984
10.0000008848
10.0000009738
10.0000010638
10.0000011549
10.0000012472
10.000001341
10.0000014361
10.0000015328
10.0000016306
10.0000017297
10.0000018297
10.0000019306
10.0000020321
10.0000021344
10.0000022369
10.0000023399
10.0000024429
10.0000025461
10.0000026489
10.0000027518
10.0000028534
10.0000029546
10.0000030534
10.0000031512
10.0000032448
10.0000033362
10.0000034209
10.0000035017
10.0000035729
10.0000036375
10.0000036892
10.0000037309
10.0000037564
10.0000037678
10.0000037602
10.0000037348
10.0000036882
10.000003621
10.0000035317
10.000003421
10.0000032887
10.0000031361
10.0000029642
10.0000027748
10.00000257
10.0000023526
10.0000021258
10.0000018941
10.0000016624
10.0000014368
10.0000012241
10.0000010313
10.0000008657
10.0000007332
10.0000006397
10.0000005886
10.0000005828
10.0000006223
10.0000007063
10.0000008317
10.0000009943
10.0000011894
10.0000014118
10.0000016568
10.0000019199
10.0000021977
10.0000024867
10.0000027843
10.000003088
10.000003396
10.0000037064
10.0000040184
10.0000043308
10.0000046432
10.000004955
10.0000052661
10.0000055758
10.0000058843
10.0000061906
10.0000064945
10.0000067951
10.0000070919
10.0000073835
10.0000076693
10.0000079478
10.0000082182
10.0000084791
10.0000087295
10.0000089682
10.0000091943
10.000009407
10.0000096055
10.0000097892
10.0000099578
10.0000101109
10.0000102486
10.0000103707
10.0000104777
10.0000105698
10.0000106477
10.0000107117
10.0000107628
10.0000108015
10.000010829
10.000010846
10.0000108535
10.0000108525
10.0000108438
10.0000108286
10.0000108072
10.0000107814
10.0000107496
10.0000107163
10.0000106725
10.0000106356
10.0000105677
10.0000105443
10.0000104135
10.0000104878
10.0000000059
10.0000001548
10.000000286
10.0000003921
10.0000004859
10.000000573
10.000000657
10.0000007402
10.0000008238
10.0000009085
10.0000009948
10.0000010828
10.0000011711
10.0000012601
10.0000013498
10.0000014405
10.0000015322
10.000001625
10.0000017187
10.0000018133
10.0000019087
10.0000020049
10.0000021017
10.0000021992
10.0000022973
10.0000023955
10.0000024946
10.0000025932
10.0000026928
10.0000027909
10.0000028903
10.0000029861
10.0000030839
10.0000031752
10.0000032691
10.0000033524
10.0000034386
10.0000035095
10.0000035825
10.000003636
10.0000036885
10.0000037186
10.0000037425
10.0000037429
10.0000037307
10.0000036952
10.0000036415
10.0000035652
10.0000034677
10.0000033486
10.0000032083
10.000003048
10.0000028686
10.0000026721
10.0000024605
10.000002237
10.0000020051
10.0000017705
10.0000015388
10.0000013179
10.0000011152
10.0000009395
10.0000007977
10.0000006965
10.0000006403
10.0000006318
10.0000006712
10.000000757
10.0000008852
10.0000010513
10.0000012496
10.0000014747
10.0000017212
10.0000019849
10.0000022616
10.000002548
10.0000028409
10.0000031376
10.0000034355
10.0000037326
10.0000040271
10.0000043177
10.0000046033
10.0000048835
10.0000051577
10.0000054258
10.0000056876
10.000005943
10.000006192
10.0000064345
10.0000066701
10.0000068988
10.0000071198
10.000007333
10.0000075376
10.000007733
10.0000079185
10.0000080937
10.0000082576
10.00000841
10.0000085503
10.0000086782
10.0000087934
10.0000088958
10.0000089855
10.0000090627
10.0000091276
10.0000091807
10.0000092225
10.0000092539
10.0000092753
10.0000092879
10.0000092923
10.0000092896
10.0000092806
10.0000092664
10.0000092478
10.000009226
10.0000092008
10.0000091748
10.0000091449
10.0000091177
10.000009081
10.0000090565
10.000009
10.0000089943
10.0000088817
10.000008966
10.000000002
10.0000001536
10.000000285
10.0000003978
10.0000004986
10.0000005909
10.0000006783
10.0000007635
10.000000848
10.0000009329
10.0000010183
10.0000011052
10.0000011923
10.0000012794
10.0000013669
10.0000014549
10.0000015435
10.0000016329
10.0000017231
10.000001814
10.0000019057
10.0000019981
10.0000020915
10.0000021851
10.0000022801
10.0000023747
10.0000024714
10.0000025664
10.000002665
10.0000027593
10.0000028598
10.0000029513
10.0000030534
10.0000031392
10.0000032419
10.000003318
10.0000034186
10.0000034805
10.0000035737
10.0000036172
10.0000036943
10.000003716
10.0000037656
10.0000037624
10.0000037732
10.0000037408
10.0000037055
10.0000036378
10.0000035545
10.0000034461
10.0000033168
10.0000031657
10.0000029937
10.0000028021
10.0000025921
10.0000023667
10.0000021288
10.0000018839
10.0000016382
10.0000014006
10.0000011799
10.0000009868
10.0000008299
10.0000007181
10.0000006558
10.0000006468
10.0000006899
10.0000007826
10.000000919
10.0000010933
10.0000012981
10.0000015274
10.0000017754
10.000002038
10.0000023113
10.0000025924
10.0000028784
10.0000031668
10.0000034553
10.0000037413
10.0000040229
10.0000042986
10.0000045673
10.000004828
10.0000050801
10.0000053231
10.0000055569
10.0000057811
10.0000059959
10.0000062012
10.000006397
10.0000065833
10.00000676
10.0000069268
10.0000070837
10.0000072303
10.0000073664
10.0000074916
10.0000076058
10.0000077086
10.0000078001
10.0000078801
10.0000079487
10.0000080061
10.0000080525
10.0000080883
10.000008114
10.0000081304
10.000008138
10.0000081377
10.0000081304
10.0000081171
10.0000080986
10.000008076
10.0000080502
10.0000080223
10.0000079928
10.0000079632
10.000007933
10.0000079049
10.0000078752
10.0000078511
10.0000078192
10.0000078024
10.0000077555
10.0000077584
10.000007666
10.0000077437
10.0000000066
10.0000001649
10.0000003071
10.0000004236
10.0000005255
10.0000006183
10.0000007059
10.000000791
10.0000008752
10.0000009595
10.0000010441
10.0000011297
10.0000012158
10.0000013017
10.0000013875
10.0000014737
10.0000015603
10.0000016475
10.0000017353
10.0000018237
10.0000019131
10.0000020028
10.000002094
10.0000021849
10.0000022784
10.00000237
10.0000024664
10.0000025577
10.0000026583
10.0000027473
10.0000028538
10.0000029368
10.0000030518
10.0000031232
10.0000032492
10.0000033018
10.0000034403
10.0000034666
10.0000036147
10.0000036104
10.0000037574
10.0000037246
10.0000038503
10.0000037974
10.0000038767
10.0000038119
10.0000038262
10.0000037486
10.0000036948
10.0000035925
10.0000034796
10.000003339
10.0000031767
10.0000029917
10.0000027849
10.0000025583
10.0000023144
10.0000020581
10.000001796
10.0000015376
10.0000012936
10.0000010766
10.000000898
10.0000007682
10.0000006939
10.0000006784
10.0000007204
10.0000008151
10.0000009556
10.0000011336
10.0000013412
10.0000015712
10.000001818
10.0000020768
10.0000023447
10.0000026194
10.0000028984
10.0000031793
10.0000034595
10.0000037368
10.0000040089
10.0000042743
10.0000045311
10.0000047786
10.0000050152
10.0000052414
10.0000054569
10.0000056614
10.0000058546
10.0000060365
10.0000062068
10.0000063657
10.0000065131
10.000006649
10.0000067733
10.000006886
10.0000069871
10.0000070765
10.0000071542
10.0000072203
10.000007275
10.0000073185
10.000007351
10.000007373
10.0000073851
10.000007388
10.0000073822
10.0000073688
10.0000073485
10.0000073225
10.0000072917
10.0000072572
10.0000072199
10.0000071811
10.0000071414
10.0000071024
10.000007064
10.0000070282
10.0000069936
10.0000069637
10.0000069337
10.0000069116
10.0000068831
10.0000068706
10.000006832
10.0000068373
10.0000067641
10.0000068262
10.0000000027
10.0000001642
10.0000003068
10.0000004305
10.0000005401
10.0000006387
10.0000007304
10.0000008182
10.0000009041
10.0000009894
10.0000010745
10.00000116
10.0000012459
10.0000013313
10.0000014166
10.0000015018
10.0000015875
10.0000016734
10.0000017601
10.000001847
10.0000019354
10.0000020234
10.0000021141
10.0000022029
10.0000022968
10.0000023855
10.0000024845
10.000002571
10.0000026784
10.0000027583
10.0000028795
10.0000029449
10.0000030889
10.0000031265
10.0000033061
10.0000032975
10.0000035272
10.0000034518
10.0000037419
10.0000035857
10.0000039301
10.0000036989
10.0000040624
10.0000037916
10.0000041096
10.0000038544
10.0000040576
10.0000038594
10.0000039153
10.0000037673
10.0000036975
10.0000035531
10.000003402
10.0000032195
10.0000030111
10.0000027773
10.000002519
10.0000022422
10.0000019528
10.0000016621
10.0000013827
10.0000011316
10.0000009237
10.0000007738
10.0000006901
10.0000006773
10.0000007312
10.0000008449
10.0000010062
10.0000012043
10.0000014283
10.00000167
10.0000019222
10.0000021816
10.0000024462
10.0000027141
10.0000029837
10.0000032528
10.00000352
10.000003783
10.0000040404
10.0000042904
10.0000045318
10.0000047632
10.0000049837
10.0000051927
10.0000053898
10.000005575
10.0000057489
10.000005911
10.0000060612
10.0000061993
10.0000063252
10.0000064387
10.0000065398
10.0000066286
10.000006705
10.0000067692
10.0000068213
10.0000068614
10.00000689
10.0000069075
10.0000069143
10.0000069111
10.0000068988
10.000006878
10.0000068498
10.0000068152
10.0000067752
10.0000067311
10.0000066838
10.0000066348
10.0000065848
10.0000065354
10.0000064869
10.000006441
10.0000063975
10.0000063585
10.000006322
10.000006292
10.0000062628
10.0000062429
10.0000062176
10.000006208
10.0000061762
10.0000061808
10.0000061237
10.0000061683
10.0000000073
10.0000001768
10.0000003299
10.0000004574
10.0000005688
10.0000006688
10.0000007615
10.0000008502
10.0000009368
10.0000010225
10.0000011079
10.0000011934
10.0000012791
10.0000013643
10.0000014493
10.0000015341
10.0000016193
10.0000017045
10.0000017908
10.0000018768
10.0000019649
10.0000020517
10.0000021428
10.0000022298
10.0000023257
10.000002411
10.0000025153
10.0000025948
10.0000027143
10.000002779
10.000002926
10.0000029592
10.0000031555
10.0000031275
10.0000034082
10.0000032728
10.0000036875
10.0000033837
10.0000039881
10.000003456
10.0000042858
10.0000035026
10.000004528
10.0000035573
10.0000046426
10.000003655
10.0000045763
10.0000037853
10.0000043444
10.0000038628
10.0000040288
10.0000037793
10.0000036894
10.0000034977
10.0000032935
10.0000030535
10.0000027813
10.0000024807
10.0000021588
10.0000018284
10.0000015058
10.0000012105
10.0000009632
10.0000007828
10.0000006827
10.0000006666
10.0000007295
10.000000859
10.0000010403
10.000001258
10.0000014996
10.0000017538
10.0000020149
10.0000022791
10.0000025446
10.0000028097
10.0000030735
10.0000033347
10.0000035919
10.000003844
10.0000040895
10.0000043272
10.0000045557
10.0000047738
10.0000049805
10.0000051753
10.0000053574
10.0000055269
10.0000056835
10.000005828
10.0000059605
10.0000060809
10.0000061889
10.0000062843
10.000006367
10.0000064371
10.0000064946
10.0000065396
10.0000065723
10.0000065932
10.0000066025
10.000006601
10.0000065892
10.000006568
10.0000065383
10.000006501
10.0000064573
10.0000064083
10.0000063552
10.0000062993
10.0000062417
10.0000061838
10.0000061265
10.0000060713
10.0000060185
10.0000059697
10.0000059245
10.0000058851
10.0000058491
10.0000058207
10.0000057935
10.0000057762
10.0000057542
10.0000057468
10.0000057205
10.0000057237
10.0000056783
10.0000057074
10.0000000035
10.000000177
10.0000003302
10.0000004649
10.0000005844
10.0000006911
10.0000007889
10.0000008812
10.0000009705
10.0000010582
10.0000011451
10.0000012318
10.0000013182
10.0000014038
10.0000014892
10.0000015742
10.0000016597
10.0000017448
10.0000018315
10.0000019172
10.0000020061
10.0000020921
10.0000021849
10.0000022702
10.0000023697
10.0000024513
10.0000025634
10.0000026341
10.0000027704
10.000002815
10.0000029978
10.0000029857
10.0000032569
10.0000031308
10.000003565
10.0000032259
10.0000039436
10.0000032399
10.0000044101
10.0000031482
10.0000049556
10.000002962
10.0000055079
10.0000027653
10.0000059062
10.0000027176
10.0000059446
10.000002956
10.0000055246
10.0000034186
10.0000048142
10.0000037893
10.0000041388
10.0000037644
10.0000036137
10.0000033508
10.0000030543
10.0000027163
10.0000023404
10.0000019487
10.0000015616
10.0000012001
10.0000008939
10.0000006764
10.0000005643
10.0000005603
10.000000652
10.0000008226
10.0000010496
10.0000013136
10.0000015954
10.0000018825
10.0000021677
10.0000024471
10.0000027194
10.0000029843
10.0000032421
10.0000034927
10.0000037363
10.0000039724
10.000004201
10.0000044209
10.0000046317
10.0000048319
10.000005021
10.0000051979
10.0000053625
10.0000055142
10.0000056532
10.0000057795
10.0000058934
10.0000059956
10.0000060859
10.0000061641
10.00000623
10.0000062835
10.0000063246
10.0000063534
10.0000063703
10.0000063756
10.0000063699
10.0000063537
10.0000063279
10.0000062933
10.000006251
10.0000062021
10.0000061478
10.0000060893
10.0000060279
10.000005965
10.0000059017
10.0000058394
10.000005779
10.0000057219
10.0000056684
10.00000562
10.0000055761
10.0000055388
10.0000055055
10.0000054801
10.0000054564
10.0000054423
10.000005424
10.0000054186
10.0000053969
10.000005398
10.0000053608
10.0000053766
10.0000000082
10.0000001898
10.0000003535
10.0000004912
10.0000006127
10.0000007214
10.0000008212
10.0000009154
10.0000010063
10.0000010955
10.0000011835
10.0000012714
10.0000013585
10.0000014447
10.0000015307
10.0000016161
10.0000017022
10.0000017877
10.000001875
10.0000019609
10.0000020508
10.0000021366
10.0000022312
10.0000023155
10.0000024187
10.0000024974
10.000002617
10.0000026804
10.0000028323
10.000002859
10.0000030758
10.0000030203
10.000003367
10.0000031386
10.0000037402
10.0000031669
10.0000042495
10.0000030322
10.0000049681
10.0000026444
10.0000059615
10.0000019428
10.0000072118
10.000001001
10.0000084933
10.0000001524
10.0000092886
9.99999996985
10.0000089842
10.0000008662
10.000007458
10.0000024642
10.0000055035
10.0000036336
10.0000041422
10.0000036692
10.0000033839
10.0000029958
10.0000025573
10.0000021076
10.0000016368
10.0000011644
10.000000781
10.0000005377
10.0000004113
10.0000003689
10.0000004105
10.0000005532
10.0000007989
10.0000011243
10.0000014899
10.0000018617
10.000002218
10.0000025489
10.0000028542
10.0000031371
10.0000034018
10.0000036514
10.0000038885
10.0000041149
10.0000043312
10.0000045377
10.0000047339
10.0000049191
10.0000050925
10.0000052535
10.0000054017
10.0000055371
10.0000056595
10.0000057691
10.0000058662
10.000005951
10.0000060242
10.0000060858
10.0000061354
10.000006173
10.0000061984
10.000006212
10.000006214
10.0000062049
10.0000061853
10.0000061559
10.0000061176
10.0000060714
10.0000060186
10.0000059601
10.0000058974
10.0000058317
10.0000057645
10.0000056968
10.0000056303
10.0000055657
10.0000055048
10.0000054475
10.0000053957
10.0000053489
10.0000053086
10.0000052737
10.0000052452
10.0000052222
10.0000052036
10.0000051904
10.0000051771
10.0000051697
10.0000051529
10.0000051462
10.000005115
10.0000051106
10.0000000046
10.00000019
10.0000003546
10.0000004982
10.0000006276
10.0000007432
10.0000008485
10.000000947
10.0000010415
10.0000011333
10.0000012239
10.0000013133
10.0000014018
10.0000014892
10.0000015765
10.000001663
10.0000017503
10.0000018367
10.0000019252
10.0000020119
10.0000021031
10.0000021898
10.000002286
10.0000023711
10.0000024766
10.0000025558
10.0000026792
10.0000027423
10.0000029012
10.0000029241
10.0000031559
10.000003086
10.0000034693
10.0000031934
10.0000038915
10.0000031762
10.0000045152
10.0000029049
10.0000054991
10.00000217
10.0000070717
10.0000007042
10.0000094594
9.99999832769
10.0000126443
9.99999530029
10.0000159231
9.99999275762
10.0000176497
9.99999257226
10.0000160258
9.99999580348
10.0000111987
10.0000006578
10.0000062153
10.0000034742
10.0000038172
10.0000032242
10.0000027706
10.0000022602
10.0000014926
10.0000008232
10.0000005932
10.0000004619
9.99999987554
9.99999879253
9.9999976978
9.99999713544
9.99999733392
9.99999816197
9.99999930447
10.0000004626
10.0000014566
10.0000022314
10.0000028111
10.0000032466
10.000003587
10.0000038672
10.0000041107
10.000004331
10.0000045362
10.0000047297
10.0000049127
10.0000050842
10.0000052436
10.0000053892
10.0000055207
10.0000056375
10.00000574
10.0000058284
10.0000059036
10.0000059659
10.0000060165
10.000006056
10.0000060846
10.000006102
10.0000061085
10.0000061041
10.0000060893
10.0000060643
10.0000060301
10.0000059871
10.0000059365
10.0000058791
10.0000058165
10.0000057492
10.0000056796
10.0000056076
10.0000055363
10.0000054649
10.0000053973
10.000005331
10.0000052718
10.0000052144
10.000005167
10.0000051203
10.0000050867
10.0000050507
10.0000050306
10.0000050028
10.0000049935
10.0000049687
10.0000049648
10.0000049346
10.0000049263
10.0000048796
10.0000048553
10.0000047835
10.0000000092
10.0000002024
10.0000003771
10.0000005235
10.0000006534
10.0000007711
10.000000879
10.0000009801
10.0000010768
10.0000011709
10.0000012632
10.0000013539
10.0000014437
10.0000015324
10.0000016209
10.0000017088
10.0000017973
10.0000018851
10.0000019748
10.0000020628
10.0000021551
10.0000022435
10.0000023405
10.0000024282
10.0000025336
10.0000026176
10.0000027388
10.0000028109
10.0000029627
10.0000030036
10.0000032182
10.000003182
10.0000035307
10.0000033127
10.0000039536
10.0000033182
10.0000045998
10.0000030318
10.0000056986
10.0000021241
10.0000076775
10.000000021
10.0000112161
9.99999592367
10.0000170743
9.99998922341
10.0000253313
9.99998066045
10.0000339128
9.99997381557
10.0000377203
9.99997447242
10.0000316104
9.99998502088
10.0000174939
9.9999983245
10.0000060144
10.0000032507
10.0000034211
10.0000020996
10.0000003928
10.000001114
10.0000026723
9.99999928656