/*--------------------------------*- C++ -*----------------------------------*\
  =========                 |
  \\      /  F ield         | OpenFOAM: The Open Source CFD Toolbox
   \\    /   O peration     | Website:  https://openfoam.org
    \\  /    A nd           | Version:  7
     \\/     M anipulation  |
\*---------------------------------------------------------------------------*/
FoamFile
{
    version     2.0;
    format      ascii;
    class       volScalarField;
    location    "3180";
    object      p;
}
// * * * * * * * * * * * * * * * * * * * * * * * * * * * * * * * * * * * * * //

dimensions      [0 2 -2 0 0 0 0];

internalField   nonuniform List<scalar> 
8192
(
0.000552655822491
0.000381099957745
0.000295468342229
0.000251333545698
0.000226285702665
0.000211026220085
0.000201138132585
0.000194377327322
0.000189537043058
0.000185933210367
0.00018315834015
0.000180958348184
0.000179168178751
0.000177676702096
0.000176406766139
0.000175303401424
0.000174326581229
0.000173446621421
0.000172641163736
0.000171893140467
0.000171189365549
0.000170519536854
0.000169875514727
0.000169250790548
0.000168640088032
0.000168039059127
0.000167444047585
0.000166851901793
0.000166259822855
0.000165665238194
0.000165065692465
0.000164458750724
0.000163841908483
0.000163212504801
0.000162567634532
0.000161904057297
0.000161218100102
0.000160505551958
0.000159761548264
0.000158980444497
0.000158155678563
0.00015727962376
0.000156343435031
0.000155336895194
0.000154248270079
0.000153064187415
0.000151769558259
0.000150347567154
0.000148779761451
0.000147046276222
0.000145126231054
0.000142998333066
0.000140641708069
0.000138036964092
0.000135167461315
0.000132020728572
0.000128589925557
0.000124875215086
0.000120884880781
0.000116636018724
0.000112154647597
0.000107475136391
0.000102638934839
9.76927071535e-05
9.26860791823e-05
8.76692852723e-05
8.26910069729e-05
7.7796627982e-05
7.30270027527e-05
6.84177224798e-05
6.39987724821e-05
5.97944434842e-05
5.58233761387e-05
5.20986694427e-05
4.86280351855e-05
4.54140218657e-05
4.24543446077e-05
3.97423514752e-05
3.7267630455e-05
3.50167342863e-05
3.29739746026e-05
3.1122226661e-05
2.94436853995e-05
2.79205271152e-05
2.65354469207e-05
2.52720619348e-05
2.41151839156e-05
2.30509770624e-05
2.20670209652e-05
2.11523016066e-05
2.02971507543e-05
1.94931524319e-05
1.87330303999e-05
1.80105281769e-05
1.73202888518e-05
1.66577403807e-05
1.60189889988e-05
1.54007228542e-05
1.48001259571e-05
1.42148027426e-05
1.3642712223e-05
1.30821112982e-05
1.2531505867e-05
1.19896091293e-05
1.1455305757e-05
1.0927621384e-05
1.04056962686e-05
9.88876272186e-06
9.37612537503e-06
8.86714404927e-06
8.36121854528e-06
7.85777533618e-06
7.35625580816e-06
6.85610641188e-06
6.35677097327e-06
5.8576863853e-06
5.35828335115e-06
4.85799567664e-06
4.35628369151e-06
3.85268207286e-06
3.34688994446e-06
2.83893654176e-06
2.32948541554e-06
1.8204031153e-06
1.31585965087e-06
8.24580279664e-07
3.6537879835e-07
3.20201118422e-08
0.000403748294026
0.000340228179475
0.000290526013804
0.000257857507383
0.000235917346303
0.000220716814528
0.000209878285322
0.000201937553617
0.000195969761646
0.000191376716728
0.000187762412979
0.000184858640677
0.0001824797033
0.000180494336645
0.000178807954451
0.000177351196067
0.000176072387948
0.000174932481007
0.00017390158365
0.000172956542899
0.000172079226474
0.000171255282265
0.000170473228166
0.000169723774344
0.000168999311047
0.00016829351607
0.000167601049196
0.000166917310657
0.000166238246484
0.00016556018838
0.000164879718173
0.000164193550486
0.000163498427524
0.000162791021206
0.000162067838715
0.000161325128706
0.000160558785287
0.000159764248146
0.000158936397023
0.000158069440227
0.000157156797085
0.000156190976255
0.000155163452791
0.000154064549904
0.000152883333466
0.000151607531721
0.000150223495936
0.000148716223078
0.000147069464897
0.000145265951753
0.000143287759169
0.000141116842646
0.000138735756128
0.000136128554647
0.000133281857613
0.000130186021827
0.000126836341103
0.000123234161952
0.000119387782771
0.000115312998794
0.000111033168265
0.000106578718037
0.000101986075824
9.72961093637e-05
9.25522433844e-05
8.77984881333e-05
8.30776215573e-05
7.84297108383e-05
7.3891051379e-05
6.94935112908e-05
6.5264197348e-05
6.12253321091e-05
5.7394247652e-05
5.37834424084e-05
5.04006885794e-05
4.72492090436e-05
4.43279523083e-05
4.16319877832e-05
3.91530225123e-05
3.68800182504e-05
3.47998677001e-05
3.28980806819e-05
3.11594314254e-05
2.95685291707e-05
2.81102875285e-05
2.67702837496e-05
2.55350103575e-05
2.4392031042e-05
2.33300564603e-05
2.23389579156e-05
2.14097352582e-05
2.05344540646e-05
1.97061637141e-05
1.89188060085e-05
1.81671207923e-05
1.74465536305e-05
1.67531682765e-05
1.60835660312e-05
1.54348125617e-05
1.48043726885e-05
1.4190052664e-05
1.35899497331e-05
1.30024081083e-05
1.24259809157e-05
1.18593971861e-05
1.13015334458e-05
1.07513890772e-05
1.02080650999e-05
9.67074570733e-06
9.13868235864e-06
8.61117997366e-06
8.08758524994e-06
7.56727696209e-06
7.04965864253e-06
6.53415407093e-06
6.02020675767e-06
5.50728505675e-06
4.99489589948e-06
4.48261161737e-06
3.97011727144e-06
3.45729005194e-06
2.94432964542e-06
2.43197013738e-06
1.9218248695e-06
1.41695200467e-06
9.22822471116e-07
4.48598985842e-07
6.86820011513e-08
0.000320816906869
0.000298140381098
0.000272135332416
0.000250883572847
0.000234748889397
0.000222423347465
0.000212888253499
0.00020541647177
0.000199486285007
0.000194718661917
0.000190835391401
0.000187630465968
0.000184950059396
0.000182678329678
0.000180727278091
0.000179029466507
0.00017753275837
0.000176196496871
0.000174988706872
0.000173884029666
0.000172862184961
0.000171906815118
0.000171004608143
0.000170144625938
0.000169317784363
0.000168516446805
0.0001677341026
0.000166965109651
0.000166204485229
0.000165447733157
0.000164690697477
0.000163929436902
0.000163160113722
0.000162378892405
0.000161581844095
0.000160764854488
0.000159923532229
0.000159053116475
0.000158148381853
0.000157203540749
0.000156212142646
0.000155166972379
0.000154059949521
0.00015288203406
0.000151623144742
0.000150272100492
0.000148816597522
0.000147243239617
0.000145537641436
0.000143684628717
0.00014166855883
0.000139473784177
0.000137085272359
0.000134489385434
0.000131674799625
0.000128633523718
0.000125361945533
0.000121861811828
0.000118141025856
0.000114214140458
0.000110102431869
0.000105833474044
0.0001014401925
9.69594639304e-05
9.2430416447e-05
8.78926499273e-05
8.33846087395e-05
7.89422822909e-05
7.45982950717e-05
7.0381364705e-05
6.63160393525e-05
6.24226049554e-05
5.8717075097e-05
5.52112202841e-05
5.19126328744e-05
4.88248527881e-05
4.59475853051e-05
4.32770342423e-05
4.08063514027e-05
3.85261815872e-05
3.64252631808e-05
3.44910380231e-05
3.27102254877e-05
3.10693273081e-05
2.95550420879e-05
2.81545831079e-05
2.68559025121e-05
2.56478331557e-05
2.45201618291e-05
2.34636494961e-05
2.24700122019e-05
2.15318753825e-05
2.06427110667e-05
1.97967661167e-05
1.89889867548e-05
1.82149437789e-05
1.74707607181e-05
1.67530469317e-05
1.60588361553e-05
1.53855311829e-05
1.47308543166e-05
1.40928036472e-05
1.3469614452e-05
1.28597255319e-05
1.22617497035e-05
1.16744482274e-05
1.10967084511e-05
1.05275245003e-05
9.96598042492e-06
9.41123574171e-06
8.86251295554e-06
8.31908716498e-06
7.78027758709e-06
7.24544138128e-06
6.71397001594e-06
6.18528906608e-06
5.65886242766e-06
5.13420282911e-06
4.61089105586e-06
4.08860775295e-06
3.56718309218e-06
3.04667232683e-06
2.52746881823e-06
2.01047189442e-06
1.49733266138e-06
9.90750903621e-07
4.94264592111e-07
7.87371079218e-08
0.000276290017354
0.000267886491261
0.000253676597011
0.000239866563372
0.000228421186122
0.000219130501738
0.00021154238908
0.000205289012417
0.000200092470963
0.000195740303662
0.000192066757801
0.000188940714022
0.00018625763704
0.00018393382006
0.000181902034854
0.000180108141445
0.000178508410539
0.000177067400215
0.000175756271153
0.00017455145016
0.000173433569545
0.000172386624372
0.000171397301149
0.000170454441284
0.000169548610211
0.00016867174949
0.000167816893814
0.000166977938964
0.000166149449589
0.000165326497554
0.00016450452341
0.000163679216929
0.000162846411356
0.000162001986905
0.000161141780742
0.000160261501041
0.000159356642849
0.000158422404306
0.000157453601848
0.000156444583972
0.000155389143397
0.000154280428719
0.000153110857376
0.000151872033684
0.000150554677158
0.000149148569306
0.00014764252957
0.00014602443507
0.000144281301899
0.000142399449549
0.000140364771346
0.000138163133606
0.000135780920451
0.000133205730814
0.000130427215858
0.000127438022112
0.000124234778068
0.00012081903637
0.000117198061761
0.000113385343616
0.000109400713946
0.000105269978137
0.000101024022643
9.66974546669e-05
9.23269316754e-05
8.79494141728e-05
8.36005983115e-05
7.93137152231e-05
7.51187451156e-05
7.10420032785e-05
6.71059865504e-05
6.33293507184e-05
5.97269274634e-05
5.63097431553e-05
5.30850481239e-05
5.00563937366e-05
4.72237995151e-05
4.45840393296e-05
4.21310498423e-05
3.98564383628e-05
3.77500474478e-05
3.58005269333e-05
3.3995867981e-05
3.23238665272e-05
3.07724980187e-05
2.93301995543e-05
2.7986065169e-05
2.67299664962e-05
2.55526130431e-05
2.4445566742e-05
2.3401223506e-05
2.2412772783e-05
2.14741434162e-05
2.05799424066e-05
1.97253910177e-05
1.89062615826e-05
1.81188169298e-05
1.73597538457e-05
1.66261510862e-05
1.59154223351e-05
1.52252739374e-05
1.45536673362e-05
1.38987857669e-05
1.32590049633e-05
1.26328673657e-05
1.20190595623e-05
1.14163924921e-05
1.08237841842e-05
1.02402446511e-05
9.66486279341e-06
9.09679504845e-06
8.53525575947e-06
7.97950915079e-06
7.42886305437e-06
6.88266449893e-06
6.34029757558e-06
5.80118405733e-06
5.26478766098e-06
4.73062310381e-06
4.19827181121e-06
3.66740692305e-06
3.1378317918e-06
2.60953804956e-06
2.0827903588e-06
1.55823161128e-06
1.03690259471e-06
5.19593165289e-07
8.03513225055e-08
0.000248701722407
0.000246709081714
0.000238886032822
0.000229671605016
0.000221371251225
0.000214322707894
0.000208369237067
0.000203305650942
0.000198963655116
0.000195213561726
0.000191954063294
0.00018910386244
0.00018659629216
0.000184375949277
0.000182396468516
0.000180618921289
0.000179010573383
0.000177543872116
0.000176195599325
0.00017494615615
0.000173778958041
0.000172679923867
0.000171637045416
0.000170640025357
0.000169679972882
0.000168749147693
0.000167840744038
0.000166948707805
0.000166067580911
0.00016519236662
0.000164318411715
0.000163441303596
0.000162556778004
0.000161660633872
0.000160748653554
0.000159816526534
0.000158859774793
0.000157873678558
0.000156853201243
0.000155792912997
0.000154686912511
0.000153528747643
0.000152311336015
0.000151026888232
0.000149666837721
0.000148221783724
0.000146681456449
0.000145034717299
0.000143269610713
0.000141373488663
0.000139333231741
0.000137135592202
0.000134767680781
0.000132217610136
0.000129475290383
0.000126533348542
0.000123388114584
0.000120040588417
0.00011649727689
0.000112770773212
0.000108879945745
0.000104849621443
0.00010070970466
9.64937748304e-05
9.22373348438e-05
8.79759807558e-05
8.37438009253e-05
7.95722218608e-05
7.54893337851e-05
7.15196204571e-05
6.76839419195e-05
6.39996064371e-05
6.04804289017e-05
5.71367439548e-05
5.39753983815e-05
5.09997784082e-05
4.82099298996e-05
4.56028099022e-05
4.31726749613e-05
4.09115792629e-05
3.88099329501e-05
3.68570645276e-05
3.50417381957e-05
3.33525930533e-05
3.17784884953e-05
3.03087554036e-05
2.89333624513e-05
2.76430122333e-05
2.64291829357e-05
2.52841304325e-05
2.4200863168e-05
2.31730998275e-05
2.21952171073e-05
2.12621930324e-05
2.03695493897e-05
1.95132957912e-05
1.86898767524e-05
1.78961227072e-05
1.71292052422e-05
1.63865967042e-05
1.56660339736e-05
1.4965486238e-05
1.42831263819e-05
1.36173057284e-05
1.29665317222e-05
1.23294482915e-05
1.17048185177e-05
1.10915093937e-05
1.04884783675e-05
9.89476151101e-06
9.30946308941e-06
8.73174644343e-06
8.1608260487e-06
7.5959607578e-06
7.03644820743e-06
6.48162054009e-06
5.93084162772e-06
5.38350623825e-06
4.8390417928e-06
4.29691387514e-06
3.75663725401e-06
3.21779503245e-06
2.6800684785e-06
2.1432750313e-06
1.60738433733e-06
1.0723736023e-06
5.37496337882e-07
8.06127882153e-08
0.000230384385739
0.000231247929214
0.000227176797653
0.000221018199491
0.000214903593273
0.000209454580088
0.0002047214936
0.000200609230302
0.000197010996347
0.000193838127571
0.000191021109379
0.000188505023913
0.000186245354138
0.000184205086574
0.000182352862569
0.000180661797242
0.000179108686334
0.000177673431719
0.000176338592319
0.000175089012011
0.000173911500086
0.000172794551946
0.000171728103285
0.00017070331357
0.0001697123755
0.000168748347617
0.000167805007267
0.000166876721322
0.00016595833288
0.00016504505904
0.000164132399319
0.000163216054245
0.000162291850603
0.000161355671038
0.000160403387144
0.000159430794657
0.00015843354936
0.000157407102651
0.000156346635682
0.000155246991398
0.000154102603918
0.000152907425294
0.00015165485019
0.000150337640122
0.000148947850162
0.00014747676316
0.000145914839157
0.000144251691507
0.000142476105626
0.000140576121641
0.000138539206984
0.000136352548366
0.000134003491475
0.000131480149181
0.000128772182072
0.000125871729524
0.000122774437314
0.000119480495187
0.000115995568425
0.000112331484472
0.000108506520817
0.000104545147067
0.000100477126868
9.63360058126e-05
9.21571801163e-05
8.79758780451e-05
8.38254451956e-05
7.97362012631e-05
7.57348828292e-05
7.1844546795e-05
6.80847226921e-05
6.44716011181e-05
6.10181405613e-05
5.77340700606e-05
5.46258345777e-05
5.16965637787e-05
4.89461435478e-05
4.63714410208e-05
4.39666904515e-05
4.17240056458e-05
3.96339577462e-05
3.76861513493e-05
3.58697433868e-05
3.41738704321e-05
3.25879716268e-05
3.11020114901e-05
2.97066167339e-05
2.83931454078e-05
2.71537063368e-05
2.59811445808e-05
2.48690052353e-05
2.3811484886e-05
2.28033771478e-05
2.18400167418e-05
2.09172248278e-05
2.00312573286e-05
1.91787570704e-05
1.83567101839e-05
1.75624067553e-05
1.67934056356e-05
1.60475030872e-05
1.53227049984e-05
1.46172022684e-05
1.39293490694e-05
1.32576436088e-05
1.26007111302e-05
1.19572888301e-05
1.13262124767e-05
1.07064044678e-05
1.00968631627e-05
9.49665328146e-06
8.90489725446e-06
8.32076736904e-06
7.74347865403e-06
7.17228242123e-06
6.60646049995e-06
6.04532023166e-06
5.48819048247e-06
4.93441908232e-06
4.38337241895e-06
3.83443809219e-06
3.287031287e-06
2.74060299718e-06
2.1946383725e-06
1.6486013613e-06
1.10169826464e-06
5.52203149403e-07
8.11497455598e-08
0.000217531116787
0.000219617000689
0.000217786218714
0.000213741800434
0.000209232908153
0.00020497577607
0.000201159390874
0.000197777913624
0.000194773824524
0.000192086588633
0.000189665117163
0.000187468572413
0.000185464315303
0.000183625735508
0.000181930605012
0.000180359955972
0.000178897341235
0.000177528342638
0.000176240230611
0.000175021713856
0.000173862742803
0.000172754346305
0.00017168849033
0.000170657952577
0.000169656209721
0.000168677335321
0.000167715907085
0.000166766922425
0.00016582572265
0.000164887920467
0.000163949333718
0.000163005925465
0.000162053746934
0.00016108888236
0.000160107395357
0.000159105275837
0.000158078386452
0.000157022407639
0.000155932780316
0.000154804645395
0.000153632779385
0.000152411525628
0.00015113472111
0.000149795619548
0.00014838681258
0.000146900152726
0.000145326684464
0.000143656593654
0.000141879190713
0.000139982949379
0.000137955629811
0.000135784520626
0.000133456836326
0.000130960300827
0.000128283930994
0.000125419005521
0.000122360167631
0.000119106571922
0.000115662951768
0.000112040454149
0.000108257061773
0.000104337411293
0.000100311860842
9.62148034044e-05
9.20824510523e-05
8.79505140823e-05
8.38522903826e-05
7.98175087941e-05
7.58719156859e-05
7.20374028157e-05
6.83323751636e-05
6.47720804467e-05
6.13687664728e-05
5.81316601329e-05
5.50668463591e-05
5.21771615291e-05
4.94622086236e-05
4.6918560612e-05
4.45401603411e-05
4.23188709245e-05
4.02450980239e-05
3.83084011723e-05
3.64980295855e-05
3.48033465267e-05
3.32141335166e-05
3.1720784969e-05
3.03144137434e-05
2.89868905868e-05
2.77308383547e-05
2.65395978486e-05
2.54071777179e-05
2.43281970391e-05
2.32978261682e-05
2.23117292822e-05
2.13660105203e-05
2.04571646491e-05
1.95820325571e-05
1.87377615138e-05
1.7921769919e-05
1.71317161669e-05
1.63654712083e-05
1.56210943923e-05
1.489681219e-05
1.41909994302e-05
1.35021627136e-05
1.28289257029e-05
1.21700160244e-05
1.15242535402e-05
1.08905397812e-05
1.0267848352e-05
9.6552161403e-06
9.05173518188e-06
8.45654505186e-06
7.86882567386e-06
7.28779046728e-06
6.71267979284e-06
6.14275471165e-06
5.57729114774e-06
5.01557461351e-06
4.4568956498e-06
3.90054578947e-06
3.34581248357e-06
2.79196716748e-06
2.23822900819e-06
1.68365890536e-06
1.12688671914e-06
5.65540251014e-07
8.27685148706e-08
0.000208094928885
0.000210640933824
0.000210156093745
0.00020759322791
0.000204300177994
0.000200970872549
0.00019787011845
0.000195059836039
0.000192525455453
0.000190231253994
0.000188140760753
0.000186222658823
0.000184451414881
0.000182806350342
0.000181270497378
0.000179829643873
0.000178471631169
0.000177185864075
0.000175962974182
0.000174794586085
0.000173673149949
0.00017259181596
0.000171544335125
0.000170524976873
0.00016952845773
0.000168549877677
0.00016758466216
0.000166628508435
0.000165677337236
0.000164727243208
0.000163774448802
0.000162815262743
0.000161846038143
0.000160863130942
0.000159862858301
0.000158841456251
0.000157795035773
0.000156719536502
0.000155610677104
0.000154463901418
0.000153274319347
0.000152036641652
0.000150745107922
0.000149393407547
0.00014797459434
0.000146480997104
0.000144904130932
0.000143234618121
0.00014146213331
0.000139575395314
0.000137562237282
0.000135409796012
0.000133104866628
0.000130634465905
0.000127986630726
0.00012515144585
0.000122122251393
0.00011889693542
0.000115479178519
0.000111879482283
0.000108115771566
0.000104213321464
0.000100203783991
9.61232588174e-05
9.20096686096e-05
8.78999968755e-05
8.38280864465e-05
7.98234541772e-05
7.59110742835e-05
7.21118096851e-05
6.84430584881e-05
6.49192528242e-05
6.15520634839e-05
5.83503325959e-05
5.53198565726e-05
5.24631784888e-05
4.97795334279e-05
4.72650330878e-05
4.49130972305e-05
4.27150681536e-05
4.06609043084e-05
3.87398484572e-05
3.69409940443e-05
3.52537127971e-05
3.36679409083e-05
3.21743432321e-05
3.07643840872e-05
2.94303335456e-05
2.81652333867e-05
2.69628408958e-05
2.58175628728e-05
2.47243877477e-05
2.36788203258e-05
2.26768215655e-05
2.17147543327e-05
2.07893353299e-05
1.98975928787e-05
1.90368300829e-05
1.82045927524e-05
1.73986415184e-05
1.66169275534e-05
1.5857571406e-05
1.51188444762e-05
1.43991527551e-05
1.36970224625e-05
1.30110873035e-05
1.23400770666e-05
1.1682807354e-05
1.10381702295e-05
1.04051256239e-05
9.78269332664e-06
9.16994543588e-06
8.56599912602e-06
7.97000963331e-06
7.3811633463e-06
6.79867093043e-06
6.22176039867e-06
5.64967005108e-06
5.08164108868e-06
4.51690942904e-06
3.95469539132e-06
3.39418783413e-06
2.83451431582e-06
2.27467795449e-06
1.71342108943e-06
1.14894996301e-06
5.78464929316e-07
8.59343115379e-08
0.000200908215584
0.000203561600135
0.00020388463796
0.0002023642967
0.00020000289953
0.000197415156224
0.000194893275173
0.000192544238289
0.000190388568951
0.000188413098036
0.000186594972627
0.000184911190863
0.000183341674445
0.000181869743006
0.000180481696823
0.00017916620196
0.000177913727086
0.000176716097895
0.000175566166766
0.000174457574896
0.000173384582289
0.000172341945106
0.000171324825062
0.00017032872013
0.000169349409244
0.000168382906194
0.0001674254196
0.000166473316973
0.00016552309289
0.000164571335177
0.000163614692471
0.000162649846289
0.000161673480741
0.000160682251742
0.00015967275524
0.00015864149381
0.000157584840951
0.000156499002229
0.000155379972369
0.000154223487169
0.000153024969035
0.000151779464795
0.000150481574467
0.000149125369819
0.00014770430219
0.000146211100233
0.000144637660665
0.000142974939062
0.00014121285421
0.000139340228631
0.000137344799953
0.000135213350827
0.000132932015503
0.00013048682207
0.000127864513264
0.000125053651323
0.000122045959062
0.000118837795041
0.000115431618709
0.000111837264246
0.000108072783351
0.00010416453483
0.000100146179637
9.60564339102e-05
9.19358771584e-05
8.7823566619e-05
8.37544249652e-05
7.97580209653e-05
7.58586392877e-05
7.20761330403e-05
6.84269332178e-05
6.49247475526e-05
6.15808009425e-05
5.84036871768e-05
5.53990141159e-05
5.25690592768e-05
4.99126260197e-05
4.74252115177e-05
4.5099491023e-05
4.29260278967e-05
4.0894069757e-05
3.89922966239e-05
3.72094304067e-05
3.55346690482e-05
3.39579521968e-05
3.24700898553e-05
3.1062793101e-05
2.9728642687e-05
2.84610234471e-05
2.72540437836e-05
2.61024523588e-05
2.50015587674e-05
2.39471615195e-05
2.29354844724e-05
2.19631216978e-05
2.10269901189e-05
2.01242890521e-05
1.92524656863e-05
1.84091856308e-05
1.75923077048e-05
1.67998622955e-05
1.60300326686e-05
1.52811387518e-05
1.45516229493e-05
1.38400376564e-05
1.31450341571e-05
1.24653526738e-05
1.17998133381e-05
1.11473079131e-05
1.05067920921e-05
9.87727824113e-06
9.25782844096e-06
8.6475477168e-06
8.04557732377e-06
7.45108797546e-06
6.8632728653e-06
6.2813403048e-06
5.70450567633e-06
5.13198216934e-06
4.56296921016e-06
3.99663634072e-06
3.43209783763e-06
2.86836847227e-06
2.30428183134e-06
1.7383393264e-06
1.1684485653e-06
5.91534661089e-07
9.09547200849e-08
0.00019527274913
0.000197874848644
0.000198679040938
0.00019789307499
0.000196247842077
0.000194260034474
0.000192217415706
0.000190251937971
0.000188410123858
0.000186698129216
0.000185105810336
0.000183618160566
0.000182220164016
0.000180898515243
0.000179641967687
0.000178441151418
0.000177288236112
0.000176176593165
0.000175100509752
0.000174054964562
0.000173035458538
0.000172037889443
0.000171058459243
0.000170093605173
0.000169139947419
0.00016819424823
0.000167253378753
0.000166314291607
0.000165373996626
0.000164429536537
0.000163477962902
0.000162516316634
0.000161541605753
0.000160550782332
0.000159540718028
0.000158508177611
0.000157449789769
0.000156362014376
0.000155241105197
0.000154083066797
0.000152883604154
0.000151638063226
0.000150341360441
0.000148987899006
0.000147571470113
0.000146085137974
0.000144521109572
0.000142870593948
0.000141123662589
0.000139269133162
0.000137294513794
0.000135186063202
0.000132929038793
0.000130508211755
0.000127908713649
0.000125117235226
0.000122123531035
0.000118922116224
0.000115513998031
0.000111908253276
0.000108123190278
0.000104186685845
0.000100135183564
9.60110456397e-05
9.18585841229e-05
8.77198018278e-05
8.36312089698e-05
7.96225781116e-05
7.57174446681e-05
7.19345524237e-05
6.82893353414e-05
6.47948455639e-05
6.14620048794e-05
5.82993251517e-05
5.53123590124e-05
5.25031707746e-05
4.98700775395e-05
4.74078034656e-05
4.510804485e-05
4.29603161676e-05
4.09528868356e-05
3.90736353697e-05
3.73107134323e-05
3.56529866019e-05
3.40902732076e-05
3.26134292293e-05
3.12143314222e-05
2.98858026389e-05
2.86215109637e-05
2.74158627798e-05
2.62639010189e-05
2.51612139379e-05
2.41038561334e-05
2.30882815733e-05
2.21112874643e-05
2.11699674754e-05
2.02616727965e-05
1.93839796727e-05
1.85346622198e-05
1.77116695415e-05
1.69131063268e-05
1.6137216275e-05
1.53823678033e-05
1.46470416123e-05
1.39298197483e-05
1.32293758805e-05
1.25444665507e-05
1.18739231991e-05
1.1216644794e-05
1.05715909216e-05
9.93777519743e-06
9.31425888139e-06
8.70014456773e-06
8.09456982324e-06
7.49670061488e-06
6.90572432791e-06
6.32084206805e-06
5.74125976134e-06
5.1661771878e-06
4.59477338975e-06
4.02618554482e-06
3.45947592338e-06
2.89357719426e-06
2.32719961157e-06
1.7586759326e-06
1.18571929041e-06
6.05094436448e-07
9.80360765518e-08
0.000190752581322
0.000193236934673
0.00019432217346
0.000194053463853
0.000192958574811
0.000191458015343
0.000189817064963
0.000188177131813
0.000186601902264
0.000185112858916
0.000183711108628
0.000182389237649
0.000181137189875
0.000179944912495
0.000178803373473
0.000177704813792
0.000176642673407
0.000175611403077
0.000174606258151
0.000173623113097
0.000172658308585
0.000171708531056
0.000170770720249
0.000169841998987
0.000168919619937
0.000168000924827
0.000167083312572
0.00016616421505
0.000165241075106
0.000164311326568
0.000163372375217
0.000162421583504
0.000161456253308
0.000160473607875
0.000159470772352
0.000158444752255
0.000157392409154
0.000156310432696
0.000155195307872
0.000154043276128
0.000152850288587
0.000151611949169
0.000150323444932
0.0001489794605
0.000147574073195
0.000146100625796
0.00014455157527
0.000142918319317
0.000141191009509
0.00013935837173
0.000137407572878
0.000135324196905
0.000133092418689
0.000130695480065
0.000128116561601
0.000125340091972
0.000122353449447
0.000119148923163
0.000115725758478
0.000112092100787
0.000108266576669
0.000104279008651
0.000100169495532
9.59852726811e-05
9.17756801364e-05
8.75866766134e-05
8.34568617372e-05
7.94162355134e-05
7.54873577632e-05
7.16876354535e-05
6.80314137964e-05
6.45311527075e-05
6.11976437246e-05
5.80395286804e-05
5.50624808642e-05
5.22684284214e-05
4.965514679e-05
4.72164046782e-05
4.4942648882e-05
4.28220402051e-05
4.08415789875e-05
3.89880950721e-05
3.72489763566e-05
3.56126118887e-05
3.40685928996e-05
3.26077420149e-05
3.12220390121e-05
2.99044960807e-05
2.86490176769e-05
2.74502651157e-05
2.63035356182e-05
2.52046590716e-05
2.41499122806e-05
2.31359488329e-05
2.21597421815e-05
2.12185395335e-05
2.03098244274e-05
1.94312861943e-05
1.85807948665e-05
1.77563803642e-05
1.69562150663e-05
1.61785990412e-05
1.54219473952e-05
1.46847792882e-05
1.39657082848e-05
1.32634337555e-05
1.25767331162e-05
1.19044547139e-05
1.12455112156e-05
1.0598873357e-05
9.96356393961e-06
9.33865194853e-06
8.72324667469e-06
8.11649168964e-06
7.51755849162e-06
6.92563955132e-06
6.33994035486e-06
5.75966977823e-06
5.1840276875e-06
4.61218785674e-06
4.04327292536e-06
3.47631579718e-06
2.91019829183e-06
2.34355310153e-06
1.77461121925e-06
1.20098013621e-06
6.19358330006e-07
1.07305422958e-07
0.000187064360277
0.000189407937318
0.000190650581955
0.000190745723984
0.000190073132748
0.000188968240936
0.000187665578387
0.000186305258799
0.000184960568701
0.00018366416702
0.00018242650942
0.000181247063215
0.000180120540025
0.000179040110615
0.000177998928139
0.000176990756437
0.000176010151524
0.000175052437006
0.000174113597575
0.00017319015135
0.000172279028536
0.000171377466898
0.000170482926295
0.000169593020853
0.000168705465991
0.000167818037274
0.000166928538208
0.000166034776798
0.000165134543867
0.000164225593731
0.000163305628204
0.000162372282819
0.000161423112237
0.000160455575062
0.00015946701744
0.00015845465478
0.000157415550832
0.000156346593213
0.000155244464198
0.000154105605281
0.000152926173502
0.000151701986958
0.000150428456147
0.000149100497005
0.000147712420682
0.000146257794786
0.000144729271418
0.000143118380136
0.000141415290599
0.000139608562571
0.000137684922489
0.000135629137002
0.000133424090601
0.000131051203612
0.000128491323704
0.000125726163232
0.000122740237367
0.000119523139064
0.000116071945624
0.000112393589999
0.000108506983808
0.000104444307332
0.000100250326914
9.59786732541e-05
9.16853474259e-05
8.74214968242e-05
8.32283217261e-05
7.91359058891e-05
7.51653964151e-05
7.13324923404e-05
6.76503077673e-05
6.41307902169e-05
6.07848265964e-05
5.76214651368e-05
5.46467301948e-05
5.18625165166e-05
4.92659899408e-05
4.68497352929e-05
4.46026165035e-05
4.25110758849e-05
4.05605102928e-05
3.87364312079e-05
3.70252648479e-05
3.54147872256e-05
3.38942703444e-05
3.24544394476e-05
3.10873290875e-05
2.9786100491e-05
2.85448578493e-05
2.73584825987e-05
2.62224927901e-05
2.51329280729e-05
2.40862576337e-05
2.30793073806e-05
2.21092025887e-05
2.11733226908e-05
2.02692654441e-05
1.93948183008e-05
1.8547935276e-05
1.77267180314e-05
1.6929400183e-05
1.61543341028e-05
1.53999796411e-05
1.46648943527e-05
1.39477248904e-05
1.32471993161e-05
1.2562120125e-05
1.18913578228e-05
1.12338449172e-05
1.0588570209e-05
9.95457326687e-06
9.3309389792e-06
8.71679205024e-06
8.11129128778e-06
7.5136234594e-06
6.92299640398e-06
6.33863089814e-06
5.75975049498e-06
5.18556804565e-06
4.61526680781e-06
4.04797270912e-06
3.4827123078e-06
2.91834813263e-06
2.35347989866e-06
1.7862984317e-06
1.21438321083e-06
6.34448742444e-07
1.18819697052e-07
0.000184016847643
0.000186216544981
0.00018753952268
0.000187889731717
0.000187540589378
0.000186756409568
0.000185738866828
0.000184620075653
0.000183477025084
0.000182349732516
0.000181255929331
0.000180200998173
0.000179184048982
0.000178201379445
0.000177248324729
0.000176320174059
0.00017541257212
0.000174521649806
0.000173644021982
0.000172776727027
0.00017191714721
0.000171062928982
0.000170211911546
0.000169362066429
0.000168511448026
0.00016765815385
0.000166800292746
0.00016593596153
0.000165063223748
0.000164180089121
0.000163284499385
0.000162374314634
0.000161447299819
0.000160501110919
0.000159533280169
0.000158541199657
0.00015752210254
0.000156473040925
0.000155390859213
0.000154272161304
0.000153113269473
0.000151910171993
0.000150658455555
0.00014935321733
0.000147988950179
0.000146559393304
0.000145057340284
0.000143474398028
0.000141800696009
0.000140024558308
0.000138132175615
0.000136107353394
0.000133931463742
0.000131583777114
0.00012904236163
0.000126285667778
0.000123294754281
0.000120055937217
0.000116563602587
0.000112823052298
0.000108853309176
0.000104689277917
0.000100381587179
9.59922125233e-05
9.15859520956e-05
8.72207136486e-05
8.29408290786e-05
7.87760843008e-05
7.47454967275e-05
7.0862524936e-05
6.71388789936e-05
6.35861197038e-05
6.02155341894e-05
5.70369393757e-05
5.40570085305e-05
5.12777309632e-05
4.86955655848e-05
4.6301609036e-05
4.40827117211e-05
4.20231420487e-05
4.01062934123e-05
3.83160531182e-05
3.66376757673e-05
3.5058190989e-05
3.35664699018e-05
3.21530888622e-05
3.08101008712e-05
2.95307861825e-05
2.83094206986e-05
2.71410783417e-05
2.60214706482e-05
2.49468204696e-05
2.3913764281e-05
2.29192772601e-05
2.19606159417e-05
2.10352741513e-05
2.01409488765e-05
1.92755135131e-05
1.84369965945e-05
1.76235645915e-05
1.68335077611e-05
1.60652282826e-05