/*--------------------------------*- C++ -*----------------------------------*\
  =========                 |
  \\      /  F ield         | OpenFOAM: The Open Source CFD Toolbox
   \\    /   O peration     | Website:  https://openfoam.org
    \\  /    A nd           | Version:  7
     \\/     M anipulation  |
\*---------------------------------------------------------------------------*/
FoamFile
{
    version     2.0;
    format      ascii;
    class       surfaceScalarField;
    location    "3180";
    object      phi;
}
// * * * * * * * * * * * * * * * * * * * * * * * * * * * * * * * * * * * * * //

dimensions      [0 3 -1 0 0 0 0];

internalField   nonuniform List<scalar> 
16192
(
6.92947581892e-10
2.44552418108e-10
4.93613429126e-10
1.99334150925e-10
3.64879927354e-10
1.28733499501e-10
2.82273484528e-10
8.26064402296e-11
2.2759993239e-10
5.46735491663e-11
1.89919527507e-10
3.7680401738e-11
1.62893279885e-10
2.70262444174e-11
1.42811421897e-10
2.00818547906e-11
1.27441780899e-10
1.53696378162e-11
1.15393357751e-10
1.2048420015e-11
1.05766621567e-10
9.62673309121e-12
9.79585220359e-11
7.8080965121e-12
9.15510747033e-11
6.40744437112e-12
8.62458066878e-11
5.30526514972e-12
8.18239629431e-11
4.42184095207e-12
7.8121583607e-11
3.70237665897e-12
7.50134177565e-11
3.10816326012e-12
7.24022434379e-11
2.61117186112e-12
7.02115895124e-11
2.19065156609e-12
6.83806570338e-11
1.83093026721e-12
6.6860698155e-11
1.519956775e-12
6.561238453e-11
1.24831168388e-12
6.46038611582e-11
1.00852154843e-12
6.38092856115e-11
7.94573902215e-13
6.32077162773e-11
6.01567821141e-13
6.27822570183e-11
4.25457946185e-13
6.25193919699e-11
2.62863887299e-13
6.24084646254e-11
1.10926413575e-13
6.24412664136e-11
-3.2802537117e-14
6.26117104763e-11
-1.70444539404e-13
6.29155702447e-11
-3.03860018681e-13
6.33502698302e-11
-4.34699506066e-13
6.3914713748e-11
-5.64443549832e-13
6.46091469703e-11
-6.94432447786e-13
6.54350355075e-11
-8.25887391788e-13
6.6394960573e-11
-9.59923415854e-13
6.74925170884e-11
-1.09755439184e-12
6.87322091556e-11
-1.23968932216e-12
7.01193316909e-11
-1.38711919641e-12
7.16598285292e-11
-1.54049274735e-12
7.33601129444e-11
-1.70027960328e-12
7.5226837219e-11
-1.86671857976e-12
7.72665931777e-11
-2.03974942533e-12
7.94855269058e-11
-2.21892620154e-12
8.18888474685e-11
-2.40331211336e-12
8.44802139288e-11
-2.59135695435e-12
8.72609864298e-11
-2.78076204977e-12
9.0229339327e-11
-2.96834140058e-12
9.33792458633e-11
-3.14989415981e-12
9.6699368741e-11
-3.32010956605e-12
1.00171915452e-10
-3.47253269357e-12
1.03771553542e-10
-3.59962336343e-12
1.07464510586e-10
-3.69294191079e-12
1.11208014976e-10
-3.74348890369e-12
1.1495024321e-10
-3.7422127761e-12
1.18630934826e-10
-3.68067630486e-12
1.22182794402e-10
-3.55184486838e-12
1.25533734606e-10
-3.35092627448e-12
1.28609908758e-10
-3.07616151621e-12
1.31339360307e-10
-2.72944040428e-12
1.33655977933e-10
-2.31660849803e-12
1.3550333573e-10
-1.84735084916e-12
1.36837939161e-10
-1.33459914261e-12
1.37631447262e-10
-7.93506547973e-13
1.37871594674e-10
-2.40148971286e-13
1.37561783655e-10
3.09806403362e-13
1.36719567457e-10
8.4220830238e-13
1.3537443341e-10
1.34512309842e-12
1.33565321064e-10
1.80909830691e-12
1.31338239323e-10
2.22706501833e-12
1.28744185863e-10
2.59403419146e-12
1.25837411611e-10
2.90675297528e-12
1.22673951569e-10
3.16343699855e-12
1.19310303671e-10
3.36362367362e-12
1.15802152673e-10
3.50812585221e-12
1.12203100071e-10
3.59902708826e-12
1.0856342436e-10
3.6396500434e-12
1.04928951583e-10
3.63444742165e-12
1.013401314e-10
3.58879527132e-12
9.78314047967e-11
3.50870249107e-12
9.44309080377e-11
3.40047348682e-12
9.1160514637e-11
3.27037121412e-12
8.80361711113e-11
3.12432238256e-12
8.5068457688e-11
2.96769347805e-12
8.2263290235e-11
2.80514860215e-12
7.96226864995e-11
2.64058606646e-12
7.71455297388e-11
2.47714013233e-12
7.4828283745e-11
2.31723044985e-12
7.26656281617e-11
2.16264096563e-12
7.06510012702e-11
2.01461322018e-12
6.8777046265e-11
1.87394212072e-12
6.70359675258e-11
1.74106665238e-12
6.54198053383e-11
1.61615074802e-12
6.39206420106e-11
1.49915254685e-12
6.25307502542e-11
1.38988149902e-12
6.12426962404e-11
1.28804429639e-12
6.00494062335e-11
1.19328071247e-12
5.89442063047e-11
1.10519108082e-12
5.79208410825e-11
1.02335672168e-12
5.69734780544e-11
9.47354905428e-13
5.60967008475e-11
8.76769379555e-13
5.52854956879e-11
8.1119766347e-13
5.45352326757e-11
7.50255778879e-13
5.3841644482e-11
6.93581262448e-13
5.32008029482e-11
6.4083484789e-13
5.26090951387e-11
5.91701409869e-13
5.20631985925e-11
5.45890385184e-13
5.15600565932e-11
5.03136117649e-13
5.10968526768e-11
4.63198273714e-13
5.06709845808e-11
4.25862731515e-13
5.02800363337e-11
3.90943126101e-13
4.99217479661e-11
3.58283527005e-13
4.95939807677e-11
3.27762607856e-13
4.92946764139e-11
2.99300047196e-13
4.90218063974e-11
2.72865967186e-13
4.87733078106e-11
2.48494825959e-13
4.85469986375e-11
2.26305677462e-13
4.83404634429e-11
2.06531993511e-13
4.81508945566e-11
1.89565961151e-13
4.79748663883e-11
1.76025549602e-13
4.78080059686e-11
1.66858096066e-13
4.76445002106e-11
1.63503764266e-13
4.74763418933e-11
1.68156648192e-13
4.72921645925e-11
1.84175984838e-13
4.70754874904e-11
2.16676112473e-13
4.68024818018e-11
2.73005012826e-13
4.64412747009e-11
3.61206720121e-13
4.63395491052e-13
9.53434361337e-10
2.28618055441e-10
8.59674980427e-10
2.93093527072e-10
7.45083512692e-10
2.43324961793e-10
6.41798761407e-10
1.8589118539e-10
5.56450991223e-10
1.40021312758e-10
4.87844363666e-10
1.06287022529e-10
4.32963809082e-10
8.19067922022e-11
3.88862741179e-10
6.41829159309e-11
3.53132477254e-10
5.10998950415e-11
3.23919958402e-10
4.12609322664e-11
2.99827988423e-10
3.37186965797e-11
2.79805622572e-10
2.78304560157e-11
2.63057625858e-10
2.31554348858e-11
2.48976318875e-10
1.93865661139e-11
2.37092085927e-10
1.63060680629e-11
2.27037858061e-10
1.37565989021e-11
2.185236234e-10
1.16223925078e-11
2.11318018792e-10
9.81677129866e-12
2.05234907562e-10
8.27375785829e-12
2.00123483461e-10
6.94234969733e-12
1.95860887944e-10
5.78254787348e-12
1.92346637973e-10
4.76255752912e-12
1.89498372134e-10
3.85678353774e-12
1.87248568891e-10
3.04437361795e-12
1.85541989293e-10
2.30814420013e-12
1.84333666751e-10
1.63377763307e-12
1.83587313398e-10
1.00921474107e-12
1.83274047817e-10
4.24189918975e-13
1.83371371515e-10
-1.30127884444e-13
1.83862339798e-10
-6.61413963444e-13
1.84734883198e-10
-1.17640403519e-12
1.85981247325e-10
-1.68106362352e-12
1.8759752246e-10
-2.18071801711e-12
1.89583239363e-10
-2.68014790004e-12
1.91941008673e-10
-3.18365442254e-12
1.94676184128e-10
-3.69509561271e-12
1.97796527931e-10
-4.21789389883e-12
2.01311857444e-10
-4.7550133343e-12
2.05233648453e-10
-5.30890343107e-12
2.09574569699e-10
-5.88140577151e-12
2.14347918254e-10
-6.47361842719e-12
2.1956692448e-10
-7.08571339812e-12
2.25243890762e-10
-7.7167025883e-12
2.31389129861e-10
-8.36415033437e-12
2.38009668719e-10
-9.02383417433e-12
2.45107693241e-10
-9.68936276859e-12
2.52678721272e-10
-1.03517695543e-11
2.60709517161e-10
-1.09991149483e-11
2.69175793443e-10
-1.16161464748e-11
2.78039794802e-10
-1.21840854346e-11
2.87247914247e-10
-1.26806254302e-11
2.96728557812e-10
-1.30802392198e-11
3.06390531613e-10
-1.33548874386e-11
3.16122272695e-10
-1.34752014922e-11
3.25792254958e-10
-1.34121669007e-11
3.35250871076e-10
-1.31392651145e-11
3.44333996535e-10
-1.26349445502e-11
3.52868292198e-10
-1.18851982642e-11
3.60678089019e-10
-1.08859375376e-11
3.67593454262e-10
-9.64478831114e-12
3.734587823e-10
-8.18192340123e-12
3.78141053525e-10
-6.52961363814e-12
3.81536817906e-10
-4.73036037995e-12
3.8357706527e-10
-2.83375636195e-12
3.84229447655e-10
-8.92539748112e-13
3.83497778356e-10
1.04146135627e-12
3.81419205467e-10
2.92076086782e-12
3.78059804553e-10
4.70449804944e-12
3.73509418838e-10
6.35945275097e-12
3.67876456217e-10
7.85999172398e-12
3.61283080464e-10
9.18736999e-12
3.53860944207e-10
1.03288460953e-11
3.4574739157e-10
1.12769440326e-11
3.37081968241e-10
1.20289998174e-11
3.28003093159e-10
1.25869528417e-11
3.1864484212e-10
1.29572299055e-11
3.09133902609e-10
1.3150541734e-11
2.99586849244e-10
1.31814539705e-11
2.90107919026e-10
1.30676800198e-11
2.80787443699e-10
1.28291340973e-11
2.71701024255e-10
1.2486851116e-11
2.62909448087e-10
1.20619076943e-11
2.54459265193e-10
1.15744677197e-11
2.46383885766e-10
1.10430375602e-11
2.38705032388e-10
1.04839687443e-11
2.31434384595e-10
9.91120271848e-12
2.24575272801e-10
9.33622271597e-12
2.18124313457e-10
8.76816244773e-12
2.12072909653e-10
8.21401909584e-12
2.06408575214e-10
7.67892357454e-12
2.01116063506e-10
7.16643114004e-12
1.96178302843e-10
6.67880593894e-12
1.91577150318e-10
6.2172830352e-12
1.87293984711e-10
5.78229898618e-12
1.83310160074e-10
5.37368788748e-12
1.79607343679e-10
4.99084331539e-12
1.76167758764e-10
4.63284900125e-12
1.72974351966e-10
4.29858197556e-12
1.7001090095e-10
3.9867924631e-12
1.67262076669e-10
3.69616452985e-12
1.64713470638e-10
3.42536130228e-12
1.62351596795e-10
3.17305795005e-12
1.60163874225e-10
2.9379652936e-12
1.5813859666e-10
2.71884628786e-12
1.56264892069e-10
2.51452737586e-12
1.5453267568e-10
2.32390623442e-12
1.52932597666e-10
2.14595730628e-12
1.51455986986e-10
1.97973620018e-12
1.50094791092e-10
1.8243840456e-12
1.48841511469e-10
1.67913273254e-12
1.47689133349e-10
1.54331210854e-12
1.46631048028e-10
1.41636021963e-12
1.45660964509e-10
1.29783799497e-12
1.44772806928e-10
1.18745001752e-12
1.43960592194e-10
1.0850736008e-12
1.43218281459e-10
9.90798993925e-13
1.42539596543e-10
9.04984554633e-13
1.4191779117e-10
8.28331881987e-13
1.41345364751e-10
7.61987450228e-13
1.40813707375e-10
7.07678582755e-13
1.40312670161e-10
6.67891564474e-13
1.39830077231e-10
6.46093579128e-13
1.39351257093e-10
6.46974306777e-13
1.38858837107e-10
6.76594140558e-13
1.38333480706e-10
7.42031298595e-13
1.37757319711e-10
8.49165310329e-13
1.37125281812e-10
9.93244330773e-13
1.12468581697e-12
9.76226807707e-10
1.89891245465e-10
9.62930506085e-10
3.06389821782e-10
9.05892222124e-10
3.00363238492e-10
8.3326791562e-10
2.58515484516e-10
7.60055699442e-10
2.13233521303e-10
6.92675343497e-10
1.73667370748e-10
6.3320750792e-10
1.41374620033e-10
5.81766007419e-10
1.15624408732e-10
5.37675636385e-10
9.51902584232e-11
5.00020952301e-10
7.8915608797e-11
4.67884744251e-10
6.58548971628e-11
4.40439864175e-10
5.52753287648e-11
4.16974780085e-10
4.66205117698e-11
3.96891148634e-10
3.94701905365e-11
3.79691109777e-10
3.35061000425e-11
3.64962143005e-10
2.84855590074e-11
3.52362699026e-10
2.42218299954e-11
3.41609715401e-10
2.05697486707e-11
3.32468208505e-10
1.74152586971e-11
3.24742773374e-10
1.46677790334e-11
3.18270708094e-10
1.22546075704e-11
3.12916472896e-10
1.01167874309e-11
3.08567224513e-10
8.20602685683e-12
3.05129210576e-10
6.48238280531e-12
3.02524848331e-10
4.91250195491e-12
3.00690349259e-10
3.46827256714e-12
2.99573778344e-10
2.1257818182e-12
2.99133461537e-10
8.64503295158e-13
2.99336670753e-10
-3.33340169649e-13
3.00158530685e-10
-1.48327647898e-12
3.01581100233e-10
-2.5989757176e-12
3.03592592547e-10
-3.69255747674e-12
3.06186698704e-10
-4.77482514327e-12
3.09361986042e-10
-5.85543546409e-12
3.13121341839e-10
-6.94300971611e-12
3.17471436074e-10
-8.04518841849e-12
3.22422173848e-10
-9.16862931735e-12
3.27986109059e-10
-1.03189450444e-11
3.34177785797e-10
-1.15005755182e-11
3.41012973719e-10
-1.27165876603e-11
3.48507757644e-10
-1.39683949391e-11
3.56677441888e-10
-1.52553886175e-11
3.65535225449e-10
-1.65744755402e-11
3.75090608588e-10
-1.79195210732e-11
3.85347493738e-10
-1.92807052114e-11
3.96301959136e-10
-2.06438121795e-11
4.07939701319e-10
-2.19894940305e-11
4.20233178946e-10
-2.32925730603e-11
4.33138533145e-10
-2.45214796026e-11
4.46592423869e-10
-2.56379535306e-11
4.6050899034e-10
-2.65971680871e-11
4.74777225696e-10
-2.73484496785e-11
4.89259124038e-10
-2.78367603015e-11
5.03789012402e-10
-2.8005064016e-11
5.18174484312e-10
-2.77976132527e-11
5.32199304643e-10
-2.71640605137e-11
5.45628526592e-10
-2.6064142965e-11
5.58215866072e-10
-2.44725160461e-11
5.69713106608e-10
-2.23831590585e-11
5.79881000552e-10
-1.98126663757e-11
5.88500810934e-10
-1.68017218645e-11
5.95385387341e-10
-1.34141824445e-11
6.0038855603e-10
-9.73352647614e-12
6.03411734981e-10
-5.85693789195e-12
6.04407069272e-10
-1.88788224135e-12
6.03376973241e-10
2.07154367606e-12
6.00370577397e-10
5.92713735755e-12
5.9547802746e-10
9.59702343703e-12
5.8882369916e-10
1.30137515131e-11
5.80559239688e-10
1.61244174218e-11
5.70857002365e-10
1.88895697702e-11
5.59904080222e-10
2.12817278513e-11
5.47896873884e-10
2.32841077138e-11
5.35036021251e-10
2.48898084575e-11
5.21521537403e-10
2.61013918994e-11
5.07548130752e-10
2.69305917885e-11
4.93300792206e-10
2.73978359445e-11
4.78950860811e-10
2.75313421038e-11
4.64652800236e-10
2.73656986479e-11
4.50541887446e-10
2.69400066978e-11
4.36732919744e-10
2.6295780456e-11
4.23319937147e-10
2.54748540197e-11
4.10376849614e-10
2.45175210032e-11
3.97958789514e-10
2.34610655569e-11
3.86103972211e-10
2.23387559253e-11
3.74835852199e-10
2.11792946216e-11
3.6416538532e-10
2.00066632807e-11
3.54093250561e-10
1.88402726662e-11
3.44611925279e-10
1.76953213759e-11
3.35707550616e-10
1.65832767328e-11
3.27361554116e-10
1.55124074022e-11
3.19552024005e-10
1.44883170387e-11
3.12254844004e-10
1.35144450442e-11
3.05444610401e-10
1.25925155878e-11
2.99095356054e-10
1.17229260456e-11
2.93181109959e-10
1.09050740218e-11
2.87676318166e-10
1.01376260585e-11
2.82556151789e-10
9.41873427824e-12
2.77796723021e-10
8.74620769623e-12
2.73375228918e-10
8.11764566052e-12
2.69270037777e-10
7.53053993917e-12
2.65460731909e-10
6.98235181463e-12
2.61928116364e-10
6.47056926103e-12
2.58654202566e-10
5.99274897618e-12
2.55622172369e-10
5.54654686972e-12
2.52816327919e-10
5.12974043268e-12
2.50222029876e-10
4.74024550098e-12
2.47825626732e-10
4.37612994532e-12
2.45614375602e-10
4.03562618443e-12
2.43576355161e-10
3.71714463515e-12
2.41700369307e-10
3.41928984326e-12
2.39975840423e-10
3.14088144476e-12
2.38392689198e-10
2.88098199167e-12
2.369411982e-10
2.63893425652e-12
2.35611854766e-10
2.41441072025e-12
2.34395169345e-10
2.20747858039e-12
2.33281464928e-10
2.0186835974e-12
2.32260635884e-10
1.8491560495e-12
2.31321878688e-10
1.70074025617e-12
2.30453408791e-10
1.57614461952e-12
2.29642200076e-10
1.47909694952e-12
2.28873829772e-10
1.41446112704e-12
2.28132599831e-10
1.38820205509e-12
2.27402273385e-10
1.4069189679e-12
2.26668051193e-10
1.47625244216e-12
2.25920852978e-10
1.59636299528e-12
2.25164205478e-10
1.74989167115e-12
1.87314502338e-12
9.71724107939e-10
1.55667134546e-10
9.86484802879e-10
2.91629118449e-10
9.67706162916e-10
3.1914187019e-10
9.27005128616e-10
2.99216510184e-10
8.76243107431e-10
2.63995533508e-10
8.22952778933e-10
2.26957690137e-10
7.71295514326e-10
1.93031875512e-10
7.2331512375e-10
1.63604790212e-10
6.79834317649e-10
1.38671055479e-10
6.41011038568e-10
1.17738878909e-10
6.0666412896e-10
1.0020179789e-10
5.76457127093e-10
8.54823218647e-11
5.49998637363e-10
7.30789928555e-11
5.26894931301e-10
6.25738880996e-11
5.06775758596e-10
5.36252644022e-11
4.89305455065e-10
4.59558543672e-11
4.74186208721e-10
3.93410683462e-11
4.61157328391e-10
3.35986212044e-11
4.49992636621e-10
2.85799428677e-11
4.40497134426e-10
2.4163273845e-11
4.32503538153e-10
2.02481966707e-11
4.25868985655e-10
1.67513329867e-11
4.20472042377e-10
1.36029634207e-11
4.16210049855e-10
1.07443688617e-11
4.12996812974e-10
8.1257326179e-12
4.10760601093e-10
5.70447850663e-12
4.09442428477e-10
3.44394877105e-12
4.08994577731e-10
1.31234869493e-12
4.09379329991e-10
-7.18097449128e-13
4.10567867141e-10
-2.67181826881e-12
4.12539314966e-10
-4.57042778146e-12
4.15279899631e-10
-6.43314591088e-12
4.1878218752e-10
-8.27711629394e-12
4.23044381481e-10
-1.01176320883e-11
4.28069645484e-10
-1.19682757293e-11
4.33865429784e-10
-1.38409739643e-11
4.40442765955e-10
-1.57459658929e-11
4.47815499842e-10
-1.76916783639e-11
4.55999426499e-10
-1.96845005453e-11
4.65011289071e-10
-2.1728447393e-11
4.74867599415e-10
-2.38247011387e-11
4.85583237206e-10
-2.5971020811e-11
4.97169782607e-10
-2.81610138068e-11
5.09633541537e-10
-3.03832712017e-11
5.22973228903e-10
-3.26203820605e-11
5.37177291392e-10
-3.48478623515e-11
5.5222087477e-10
-3.7033063301e-11
5.68062479414e-10
-3.91341617938e-11
5.84640398527e-10
-4.10993810957e-11
6.01869102589e-10
-4.28666383423e-11
6.19635813024e-10
-4.43638578415e-11
6.37797597007e-10
-4.55102117389e-11
6.56179395051e-10
-4.6218535502e-11
6.74573451332e-10
-4.63990968535e-11
6.92740624736e-10
-4.59647630744e-11
7.10414001483e-10
-4.4837414003e-11
7.27305086533e-10
-4.29552056837e-11
7.43112624624e-10
-4.02800333206e-11
7.57533795748e-10
-3.68043115775e-11
7.70277174016e-10
-3.25560288862e-11
7.81076466187e-10
-2.76010018118e-11
7.89703733281e-10
-2.20414414112e-11
7.95980643386e-10
-1.60104331017e-11
7.99786429059e-10
-9.6627251031e-12
8.01061678385e-10
-3.16313842843e-12
7.99807807512e-10
3.32540228081e-12
7.9608282628e-10
9.65210093799e-12
7.89994556875e-10
1.5685270075e-11
7.81692603173e-10
2.13156777073e-11
7.71360150222e-10
2.64568387099e-11
7.59206237714e-10
3.10434470932e-11
7.4545870789e-10
3.50292197354e-11
7.30357722368e-10
3.83850532587e-11
7.14149630803e-10
4.10978587847e-11
6.97081022744e-10
4.31699581193e-11
6.79392942242e-10
4.46186305165e-11
6.61315408344e-10
4.54753286514e-11
6.43062505359e-10
4.57842049794e-11
6.24828339857e-10
4.55998254584e-11
6.06784109457e-10
4.49842001373e-11
5.89076410407e-10
4.40034444323e-11
5.71826773345e-10
4.27244580381e-11
5.55132291399e-10
4.12119719461e-11
5.39067122359e-10
3.95262056514e-11
5.23684608441e-10
3.77212428615e-11
5.09019762783e-10
3.5844115198e-11
4.95091902789e-10
3.39344999447e-11
4.81907258391e-10
3.20248953809e-11
4.69461431657e-10
3.01411279053e-11
4.57741630726e-10
2.83030588206e-11
4.46728637134e-10
2.65253833481e-11
4.36398494813e-10
2.4818442806e-11
4.26723927486e-10
2.31889967648e-11
4.1767550457e-10
2.16409237567e-11
4.09222581436e-10
2.01758351744e-11
4.01334043563e-10
1.87935985686e-11
3.93978883218e-10
1.74927736644e-11
3.87126636474e-10
1.62709688307e-11
3.80747704872e-10
1.51251275851e-11
3.74813583805e-10
1.4051755474e-11
3.69297015724e-10
1.3047097178e-11
3.64172084058e-10
1.21072730436e-11
3.59414260201e-10
1.12283830547e-11
3.55000414168e-10
1.04065853236e-11
3.50908796693e-10
9.63815501697e-12
3.47118999298e-10
8.91952886814e-12
3.43611896659e-10
8.24733953505e-12
3.40369574778e-10
7.61844359076e-12
3.37375246722e-10
7.02994636517e-12
3.3461315719e-10
6.47922666887e-12
3.32068475751e-10
5.96396415415e-12
3.29727178342e-10
5.48217211194e-12
3.27575915544e-10
5.03223843002e-12
3.25601866266e-10
4.6129775726e-12
3.23792575099e-10
4.22369631912e-12
3.22135772753e-10
3.86427576792e-12
3.20619180523e-10
3.53527107658e-12
3.19230304073e-10
3.23802817619e-12
3.17956228828e-10
2.97481161071e-12
3.16783442706e-10
2.74892730823e-12
3.1569773385e-10
2.56480284968e-12
3.14684247735e-10
2.42794479466e-12
3.13727843896e-10
2.34460396772e-12
3.12813967508e-10
2.32079395288e-12
3.11930309571e-10
2.35990949665e-12
3.11069315433e-10
2.45735672214e-12
3.10230019105e-10
2.5891879344e-12
2.69228998171e-12
9.63876598449e-10
1.29290531486e-10
9.87432920733e-10
2.68072785928e-10
9.89198249298e-10
3.17376531467e-10
9.71263388187e-10
3.17151361257e-10
9.40579923718e-10
2.94678987762e-10
9.03199952669e-10
2.64337650894e-10
8.63323934999e-10
2.32907882883e-10
8.23604209457e-10
2.03324505489e-10
7.85601253195e-10
1.76674001525e-10
7.50157147588e-10
1.53182974375e-10
7.17660157278e-10
1.32698778143e-10
6.88221582236e-10
1.14920886957e-10
6.61790371355e-10
9.95101939017e-11
6.38225862186e-10
8.61383875743e-11
6.17343108434e-10
7.45080086033e-11
5.98940559778e-10
6.43583936398e-11
5.82816516606e-10
5.54651023015e-11
5.68778520562e-10
4.76366082194e-11
5.56648349648e-10
4.07101049366e-11
5.46264317857e-10
3.45472969946e-11
5.37481955144e-10
2.90305509376e-11
5.30173744739e-10
2.40595351624e-11
5.24228339899e-10
1.95483602371e-11
5.19549520863e-10
1.54231801048e-11
5.16055049613e-10
1.16201962967e-11
5.13675515565e-10
8.08400523546e-12
5.12353223633e-10
4.76623362989e-12
5.12041150713e-10
1.62441482751e-12
5.12701979666e-10
-1.37893290115e-12
5.14307207524e-10
-4.27705228811e-12
5.16836322667e-10
-7.09954872952e-12
5.20276038782e-10
-9.8728674099e-12
5.24619567098e-10
-1.26206495396e-11
5.29865908275e-10
-1.53639776524e-11
5.36019141724e-10
-1.81215129712e-11
5.43087687916e-10
-2.09095232425e-11
5.51083515392e-10
-2.37417956744e-11
5.600212616e-10
-2.66294259621e-11
5.69917232352e-10
-2.95804716773e-11
5.80788241945e-10
-3.25994562033e-11
5.92650252059e-10
-3.56867092008e-11
6.05516766203e-10
-3.88375314748e-11
6.19396935464e-10
-4.20411780587e-11
6.3429333518e-10
-4.52796642334e-11
6.50199379362e-10
-4.85264178124e-11
6.67096355975e-10
-5.17448286823e-11
6.84950090752e-10
-5.4886785932e-11
7.03707286779e-10
-5.78913437705e-11
7.23291640496e-10
-6.06837189331e-11
7.43599907462e-10
-6.31748876487e-11
7.64498177515e-10
-6.52621086379e-11
7.85818716999e-10
-6.68307305317e-11
8.07357827734e-10
-6.77576244203e-11
8.28875242748e-10
-6.79164892221e-11
8.50095596524e-10
-6.71850938378e-11
8.70712452064e-10
-6.54542466156e-11
8.90395215559e-10
-6.26379469575e-11
9.08799023541e-10
-5.86838203868e-11
9.25577351886e-10
-5.35826210493e-11
9.40396696817e-10
-4.73753576516e-11
9.52952244201e-10
-4.01565364774e-11
9.62983049734e-10
-3.20722382636e-11
9.70285020729e-10
-2.33124000519e-11
9.74720089351e-10
-1.40977947002e-11
9.76220495947e-10
-4.66355135685e-12
9.74787989625e-10
4.75789683763e-12
9.70488718087e-10
1.3951355289e-11
9.63445258613e-10
2.27287072351e-11
9.53827386282e-10
3.09335229785e-11
9.41842848556e-10
3.84413452535e-11
9.2772883383e-10
4.51574271615e-11
9.11744268373e-10
5.10137478519e-11
8.94162728097e-10
5.59665542413e-11
8.75265653816e-10
5.99948926042e-11
8.55335653903e-10
6.30999170646e-11
8.34649880751e-10
6.53043628622e-11
8.13473677869e-10
6.66514914047e-11
7.92054840163e-10
6.72030037284e-11
7.70618863443e-10
6.70357647261e-11
7.49365484544e-10
6.62375433918e-11
7.28466662163e-10
6.49022331264e-11
7.08065977631e-10
6.31251109697e-11
6.8827928731e-10
6.09986327548e-11
6.69196365634e-10
5.86090999008e-11
6.50883241132e-10
5.60343419255e-11
6.33384940328e-10
5.33423924667e-11
6.16728395321e-10
5.05910231673e-11
6.00925326798e-10
4.78279437464e-11
5.85974969564e-10
4.50914664382e-11
5.71866557981e-10
4.24114530292e-11
5.58581527777e-10
3.98103973403e-11
5.46095420903e-10
3.73045345119e-11
5.34379499749e-10
3.49049036543e-11
5.2340209047e-10
3.26183195792e-11
5.13129681688e-10
3.0448231194e-11
5.0352780843e-10
2.83954596897e-11
4.94561750874e-10
2.64588196222e-11
4.8619707656e-10
2.46356320413e-11
4.78400051709e-10
2.29221417667e-11
4.71137944875e-10
2.13138520482e-11
4.64379242574e-10
1.98057895862e-11
4.58093794015e-10
1.83927120693e-11
4.52252898794e-10
1.70692690749e-11
4.46829349354e-10
1.58301258971e-11
4.41797437334e-10
1.46700584906e-11
4.37132931387e-10
1.35840265937e-11
4.32813032005e-10
1.25672310149e-11
4.28816307744e-10
1.16151602795e-11
4.25122615743e-10
1.07236311198e-11
4.21713008659e-10
9.8888268435e-12
4.18569629032e-10
9.10733720811e-12
4.15675591706e-10
8.37620321442e-12
4.13014854292e-10
7.69296996821e-12
4.10572075833e-10
7.05575051602e-12
4.08332463981e-10
6.46330301627e-12
4.0628161235e-10
5.91512261527e-12
4.04405331687e-10
5.41154733111e-12
4.02689482507e-10
4.9538733354e-12
4.0111982293e-10
4.54446756244e-12
3.99681895289e-10
4.18685174388e-12
3.98360989151e-10
3.88570622137e-12
3.97142237725e-10
3.64669392923e-12
3.96010925199e-10
3.47591470366e-12
3.94953088215e-10
3.37862966916e-12
3.93956415849e-10
3.35658109754e-12
3.93011048583e-10
3.40272365465e-12
3.92108410524e-10
3.49182596037e-12
3.56726216079e-12
9.57457903215e-10
1.09332623383e-10
9.82214665958e-10
2.43316012425e-10
9.94331527298e-10
3.05259659728e-10
9.91079847368e-10
3.20403030475e-10
9.7561884547e-10
3.1013997861e-10
9.52061434695e-10
2.87895050499e-10
9.23868616289e-10
2.61100690109e-10
8.93581049537e-10
2.33612061096e-10
8.62942250235e-10
2.07312789733e-10
8.33091631625e-10
1.83033581964e-10
8.04736596695e-10
1.61053802135e-10
7.78285630722e-10
1.41371842092e-10
7.53945443165e-10
1.23850370731e-10
7.31789812762e-10
1.08294007379e-10
7.11807509586e-10
9.44903013159e-11
6.93935213619e-10
8.22306792972e-11
6.78079860131e-10
7.13204456347e-11
6.64133617198e-10
6.15828411699e-11
6.51983770766e-10
5.28599415558e-11
6.415191144e-10
4.50119437317e-11
6.32633955829e-10
3.79157000588e-11
6.25230510856e-10
3.14629708776e-11
6.19220215781e-10
2.55586462432e-11
6.14524323312e-10
2.01190637056e-11
6.11074031133e-10
1.50704798054e-11
6.08810312429e-10
1.03477154876e-11
6.07683561775e-10
5.89297605049e-12
6.07653131403e-10
1.6548372118e-12
6.08686805613e-10
-2.41261484464e-12
6.10760238586e-10
-6.35049270026e-12
6.13856376962e-10
-1.01956942286e-11
6.17964869605e-10
-1.39813668039e-11
6.2308146007e-10
-1.77372463432e-11
6.29207353516e-10
-2.14898769452e-11
6.36348543812e-10
-2.52627085604e-11
6.44515082209e-10
-2.90760662749e-11
6.53720263998e-10
-3.29469813511e-11
6.63979705654e-10
-3.68888706268e-11
6.75310280241e-10
-4.09110482797e-11
6.87728875228e-10
-4.50180520556e-11
7.01250932829e-10
-4.92087663861e-11
7.1588873091e-10
-5.34753276881e-11
7.3164936124e-10
-5.78018049361e-11
7.48532364705e-10
-6.21626624983e-11
7.66526989553e-10
-6.65210356047e-11
7.85609053392e-10
-7.08268834829e-11
8.05737413098e-10
-7.50151345653e-11
8.26850084951e-10
-7.90040024617e-11
8.48860111192e-10
-8.2693729956e-11
8.71651344101e-10
-8.59661033274e-11
8.95074412045e-10
-8.86851574847e-11
9.18943241286e-10
-9.0699538975e-11
9.43032616952e-10
-9.18469778664e-11
9.67077356413e-10
-9.19612053575e-11
9.90773704913e-10
-9.08814183531e-11
1.01378351749e-09
-8.84640350429e-11
1.03574163779e-09
-8.4596043595e-11
1.05626662172e-09
-7.92087818163e-11
1.07497458969e-09
-7.22905684734e-11
1.09149554585e-09
-6.38962960053e-11
1.10549099475e-09
-5.41519711382e-11
1.1166711808e-09
-4.32524143447e-11
1.12480992321e-09
-3.14511373943e-11
1.12975505977e-09
-1.90429315929e-11
1.1314331281e-09
-6.34162573827e-12
1.1298480377e-09
6.34297535885e-12
1.12507474048e-09
1.87246348798e-11
1.11724977165e-09
3.0553652994e-11
1.10656066982e-09
4.1622596792e-11
1.09323578128e-09
5.17662014975e-11
1.07753515129e-09
6.08580213448e-11
1.05974249867e-09
6.88063619977e-11
1.04015787516e-09
7.55511374286e-11
1.01909054467e-09
8.10621817284e-11
9.96851785799e-10
8.53386342276e-11
9.7374760375e-10
8.84085035408e-11
9.50071615478e-10
9.03274391872e-11
9.26098554298e-10
9.11760257831e-11
9.02078874272e-10
9.10554073388e-11
8.78234828665e-10
9.00815535815e-11
8.54758199693e-10
8.83788288282e-11
8.31809642096e-10
8.60736375459e-11
8.09519428145e-10
8.32888179262e-11
7.87989279338e-10
8.01392221392e-11
7.67294939013e-10
7.67286577777e-11
7.47489164973e-10
7.31481440195e-11
7.28604876279e-10
6.94752911904e-11
7.10658255425e-10
6.57745455984e-11
6.93651670245e-10
6.20980341016e-11
6.77576334072e-10
5.84867730209e-11
6.62414663594e-10
5.49720527979e-11
6.48142323946e-10
5.15768601702e-11
6.34729969875e-10
4.83172446165e-11
6.22144704372e-10
4.52035727507e-11
6.10351282175e-10
4.22416417194e-11
5.99313088589e-10
3.94336421909e-11
5.8899292366e-10
3.67789739654e-11
5.79353620596e-10
3.42749249708e-11
5.70358524464e-10
3.19172281561e-11
5.61971854689e-10
2.97005124455e-11
5.54158971543e-10
2.76186636827e-11
5.46886564202e-10
2.56651106768e-11
5.4012277496e-10
2.38330498772e-11
5.33837271963e-10
2.21156207493e-11
5.28001280388e-10
2.05060422032e-11
5.2258758031e-10
1.8997719099e-11
5.17570477586e-10
1.75843264498e-11
5.12925752891e-10
1.62598779808e-11
5.08630592603e-10
1.5018784707e-11
5.04663504458e-10
1.38559085931e-11
5.01004219881e-10
1.27666156946e-11
4.97633584526e-10
1.17468327974e-11
4.94533438021e-10
1.07931110185e-11
4.91686484085e-10
9.90269932792e-12
4.89076152347e-10
9.07362996012e-12
4.86686454311e-10
8.30481619993e-12
4.84501837359e-10
7.59616017604e-12
4.82507043505e-10
6.94866343893e-12
4.80686983341e-10
6.36452434038e-12
4.79026641056e-10
5.84719102661e-12
4.7751103265e-10
5.40131202846e-12
4.76125244848e-10
5.03247957131e-12
4.74854578967e-10
4.74657889392e-12
4.7368478941e-10
4.54841804089e-12
4.72602272601e-10
4.4390972352e-12
4.71593652107e-10
4.41134390095e-12
4.70643270231e-10
4.44220786264e-12
4.48435577705e-12
9.52816983248e-10
9.40156342757e-11
9.76082048532e-10
2.20050935395e-10
9.92970740978e-10
2.88370955726e-10
9.98791325596e-10
3.14582434485e-10
9.94188081181e-10
3.14743211495e-10
9.81581748473e-10
3.00501371609e-10
9.63522282839e-10
2.79160144155e-10
9.42147241636e-10
2.54987090754e-10
9.19090434779e-10
2.30369585105e-10
8.95539212095e-10
2.06584793237e-10
8.72325515901e-10
1.84267487003e-10
8.50012129246e-10
1.63685217521e-10
8.28963761018e-10
1.44898727843e-10
8.09402327564e-10
1.2785542984e-10
7.91448696311e-10
1.12443921711e-10
7.75153663519e-10
9.85257013758e-11
7.60520669523e-10
8.59534290707e-11
7.47522295715e-10
7.45812045776e-11
7.3611213817e-10
6.42700888658e-11
7.26233272487e-10
5.48907993499e-11
7.17824221403e-10
4.63247412512e-11
7.10823102911e-10
3.84640796536e-11
7.05170459217e-10
3.12112804009e-11
7.00811133976e-10
2.44783795936e-11
6.97695466211e-10
1.81861384046e-11
6.95779996006e-10
1.22631767222e-11
6.95027822681e-10
6.64514060969e-12
6.95408715927e-10
1.2739354191e-12
6.96899050468e-10
-3.90295769237e-12
6.99481608687e-10
-8.93305896301e-12
7.03145292615e-10
-1.38593859015e-11
7.07884757021e-10
-1.87208386144e-11
7.13699972251e-10
-2.35524685838e-11
7.20595717656e-10
-2.83856289028e-11
7.28580999106e-10
-3.32479960253e-11
7.37668378034e-10
-3.81634505884e-11
7.47873193795e-10
-4.31518017602e-11
7.59212655999e-10
-4.82283366188e-11
7.71704778385e-10
-5.34031734535e-11
7.85367121189e-10
-5.8680396501e-11
8.00215304601e-10
-6.40569501268e-11
8.16261252511e-10
-6.95212744492e-11
8.33511123775e-10
-7.50516734028e-11
8.51962888893e-10
-8.06144230083e-11
8.71603514686e-10
-8.61616548281e-11
8.92405730923e-10
-9.16290910642e-11
9.14324373622e-10