/*--------------------------------*- C++ -*----------------------------------*\
  =========                 |
  \\      /  F ield         | OpenFOAM: The Open Source CFD Toolbox
   \\    /   O peration     | Website:  https://openfoam.org
    \\  /    A nd           | Version:  7
     \\/     M anipulation  |
\*---------------------------------------------------------------------------*/
FoamFile
{
    version     2.0;
    format      ascii;
    class       volVectorField;
    location    "3180";
    object      U;
}
// * * * * * * * * * * * * * * * * * * * * * * * * * * * * * * * * * * * * * //

dimensions      [0 1 -1 0 0 0 0];

internalField   nonuniform List<vector> 
8192
(
(0.00104348645241 0.000156513547589 0)
(0.000759399047051 0.000127573856592 0)
(0.000549435748147 8.23894396804e-05 0)
(0.000414178183604 5.28681217469e-05 0)
(0.000326318986828 3.49910714664e-05 0)
(0.000267212454334 2.41154571123e-05 0)
(0.000225800196731 1.72967964271e-05 0)
(0.00019565100914 1.2852387066e-05 0)
(0.000172962049789 9.83656820239e-06 0)
(0.000155414488736 7.71098880961e-06 0)
(0.000141542386764 6.16110917838e-06 0)
(0.000130384091906 4.99718176774e-06 0)
(0.000121286141913 4.10076439752e-06 0)
(0.00011379000409 3.39536969582e-06 0)
(0.000107564652564 2.82997820933e-06 0)
(0.000102365149792 2.36952106174e-06 0)
(9.80064008727e-05 1.98922448647e-06 0)
(9.43460231645e-05 1.67114999112e-06 0)
(9.12728530882e-05 1.4020170023e-06 0)
(8.86990377896e-05 1.17179537101e-06 0)
(8.65544673209e-05 9.72772335998e-07 0)
(8.47827729184e-05 7.98919477681e-07 0)
(8.33383972404e-05 6.45453790992e-07 0)
(8.21844139326e-05 5.08527297417e-07 0)
(8.12908812088e-05 3.8500340553e-07 0)
(8.06335829092e-05 2.72293085558e-07 0)
(8.01930553525e-05 1.68232887871e-07 0)
(7.9953828221e-05 7.09929046879e-08 0)
(7.9903827865e-05 -2.09936237548e-08 0)
(8.00339052095e-05 -1.09084505219e-07 0)
(8.03374596614e-05 -1.94470411956e-07 0)
(8.08101376479e-05 -2.78207683882e-07 0)
(8.144958949e-05 -3.61243871893e-07 0)
(8.22552708597e-05 -4.44436766583e-07 0)
(8.32282767858e-05 -5.28567930744e-07 0)
(8.43711974915e-05 -6.14350986146e-07 0)
(8.56879857033e-05 -7.02434810775e-07 0)
(8.71838247962e-05 -7.93401166181e-07 0)
(8.88649861418e-05 -8.877562857e-07 0)
(9.07386625409e-05 -9.85915358306e-07 0)
(9.28127625431e-05 -1.0881789461e-06 0)
(9.50956481046e-05 -1.19469989104e-06 0)
(9.75957954539e-05 -1.30543963221e-06 0)
(0.000100321356853 -1.42011276898e-06 0)
(0.0001032795996 -1.53811975255e-06 0)
(0.000106476199294 -1.65846845079e-06 0)
(0.000109914368229 -1.77968771185e-06 0)
(0.000113593808484 -1.89973849637e-06 0)
(0.000117509494522 -2.01593226228e-06 0)
(0.000121650313347 -2.12487012227e-06 0)
(0.000125997621884 -2.22242092388e-06 0)
(0.000130523820156 -2.3037589526e-06 0)
(0.000135191081042 -2.36348282291e-06 0)
(0.00013995041636 -2.39583289836e-06 0)
(0.000144741285239 -2.3950161767e-06 0)
(0.000149491953943 -2.35563283511e-06 0)
(0.000154120786706 -2.27318071576e-06 0)
(0.000158538578565 -2.14459281567e-06 0)
(0.000162651931753 -1.96874337037e-06 0)
(0.000166367532201 -1.74684185874e-06 0)
(0.000169597016473 -1.48262943874e-06 0)
(0.000172261960744 -1.18230454346e-06 0)
(0.00017429841593 -8.54143451271e-07 0)
(0.000175660407311 -5.07844190702e-07 0)
(0.000176321946839 -1.53695341623e-07 0)
(0.000176277362131 1.98276098152e-07 0)
(0.000175540064712 5.39013313523e-07 0)
(0.000174140160555 8.60878782986e-07 0)
(0.000172121442863 1.15782291642e-06 0)
(0.000169538278648 1.42532161173e-06 0)
(0.000166452752119 1.66018188253e-06 0)
(0.000162932222383 1.86032190418e-06 0)
(0.000159047272435 2.02459967907e-06 0)
(0.000154869923353 2.15271915112e-06 0)
(0.00015047197206 2.24520054541e-06 0)
(0.000145923361756 2.30337733649e-06 0)
(0.000141290575636 2.32937602778e-06 0)
(0.000136635120603 2.32604634985e-06 0)
(0.000132012213109 2.29682897365e-06 0)
(0.000127469783166 2.24556959428e-06 0)
(0.000123047880214 2.17630303156e-06 0)
(0.000118778510512 2.09303757703e-06 0)
(0.000114685878879 1.99956632484e-06 0)
(0.000110786962432 1.89932382595e-06 0)
(0.000107092318671 1.79529510538e-06 0)
(0.00010360702511 1.68997508254e-06 0)
(0.000100331658392 1.58536968469e-06 0)
(9.72632406296e-05 1.4830274879e-06 0)
(9.43961036203e-05 1.384090218e-06 0)
(9.17226428364e-05 1.28935246091e-06 0)
(8.92339504225e-05 1.19932295726e-06 0)
(8.69203288261e-05 1.11428265752e-06 0)
(8.4771694633e-05 1.03433647873e-06 0)
(8.27778863033e-05 9.59457629984e-07 0)
(8.09288910495e-05 8.89524159376e-07 0)
(7.92150057566e-05 8.24348349688e-07 0)
(7.76269455833e-05 7.63699655979e-07 0)
(7.61559120245e-05 7.07322291726e-07 0)
(7.47936303278e-05 6.54948301875e-07 0)
(7.35323642476e-05 6.06307139474e-07 0)
(7.23649144973e-05 5.61132402915e-07 0)
(7.12846057827e-05 5.19166504621e-07 0)
(7.02852661527e-05 4.80163698483e-07 0)
(6.93612013809e-05 4.43892007967e-07 0)
(6.85071663554e-05 4.1013430265e-07 0)
(6.77183347756e-05 3.78688902316e-07 0)
(6.6990267988e-05 3.49369846518e-07 0)
(6.63188833188e-05 3.22007115296e-07 0)
(6.57004219328e-05 2.96446895177e-07 0)
(6.51314158448e-05 2.72552148169e-07 0)
(6.46086533853e-05 2.50203600705e-07 0)
(6.41291419519e-05 2.29301457283e-07 0)
(6.36900663896e-05 2.09768069028e-07 0)
(6.32887405962e-05 1.91552030205e-07 0)
(6.29225489992e-05 1.74634218999e-07 0)
(6.25888730931e-05 1.59036688614e-07 0)
(6.22849961268e-05 1.44835633575e-07 0)
(6.20079757314e-05 1.32180475847e-07 0)
(6.17544691197e-05 1.21322215136e-07 0)
(6.15204870047e-05 1.12656351745e-07 0)
(6.13010383084e-05 1.06789181482e-07 0)
(6.10896039547e-05 1.0464240913e-07 0)
(6.08773389465e-05 1.07620254843e-07 0)
(6.06518441509e-05 1.17872630296e-07 0)
(6.03952973331e-05 1.38672711982e-07 0)
(6.0081900347e-05 1.74723208209e-07 0)
(5.96760041617e-05 2.31172300877e-07 0)
(5.91482584096e-05 2.96573114274e-07 0)
(0.00121019799126 0.000302829103071 0)
(0.00116038997873 0.000315153713918 0)
(0.0010270454356 0.000238117415228 0)
(0.000887604655423 0.000171838480396 0)
(0.000766879841684 0.000124604711631 0)
(0.000668349027129 9.21391515312e-05 0)
(0.000589317230559 6.97171434365e-05 0)
(0.000525968992167 5.39294532618e-05 0)
(0.000474876939797 4.2540501029e-05 0)
(0.00043331355882 3.41179854601e-05 0)
(0.000399198685968 2.77410749894e-05 0)
(0.000370965511037 2.28086736178e-05 0)
(0.000347432478995 1.89202427244e-05 0)
(0.000327701724629 1.58027720087e-05 0)
(0.000311083779073 1.32658617696e-05 0)
(0.000297043164153 1.11737443591e-05 0)
(0.000285159348136 9.42755569146e-06 0)
(0.000275098651003 7.95388362226e-06 0)
(0.000266593872867 6.69722203161e-06 0)
(0.000259429370254 5.61489917731e-06 0)
(0.000253429997699 4.67360297503e-06 0)
(0.000248452816587 3.84695629632e-06 0)
(0.000244380806468 3.11379525515e-06 0)
(0.000241118042256 2.45692641291e-06 0)
(0.000238585957237 1.86221569361e-06 0)
(0.000236720419868 1.31791077072e-06 0)
(0.000235469427295 8.14130322154e-07 0)
(0.000234791271178 3.42474452832e-07 0)
(0.000234653068373 -1.04275469799e-07 0)
(0.00023502957524 -5.32389441823e-07 0)
(0.000235902222717 -9.47368994479e-07 0)
(0.000237258323535 -1.35408840293e-06 0)
(0.000239090412663 -1.75690340284e-06 0)
(0.000241395687566 -2.15973142261e-06 0)
(0.000244175518743 -2.56610676117e-06 0)
(0.000247435003392 -2.97921217828e-06 0)
(0.000251182535717 -3.40188690603e-06 0)
(0.00025542936664 -3.83660970013e-06 0)
(0.000260189123774 -4.28545448159e-06 0)
(0.000265477259617 -4.75001505207e-06 0)
(0.00027131039229 -5.2312947395e-06 0)
(0.00027770549935 -5.72955646584e-06 0)
(0.000284678921755 -6.24412928872e-06 0)
(0.000292245133198 -6.77316898298e-06 0)
(0.000300415231091 -7.31337362412e-06 0)
(0.000309195111655 -7.85966062269e-06 0)
(0.000318583305288 -8.40482022663e-06 0)
(0.000328568472597 -8.93917206327e-06 0)
(0.000339126598787 -9.45026600612e-06 0)
(0.000350217976477 -9.92268480044e-06 0)
(0.000361784133792 -1.03380211992e-05 0)
(0.000373744942118 -1.06751120532e-05 0)
(0.000385996217232 -1.09106107836e-05 0)
(0.000398408194757 -1.10199618534e-05 0)
(0.000410825297698 -1.09788029931e-05 0)
(0.000423067600662 -1.07647625084e-05 0)
(0.000434934315271 -1.03595452279e-05 0)
(0.000446209464789 -9.75111970474e-06 0)
(0.000456669683979 -8.93574339442e-06 0)
(0.0004660937877 -7.91950637787e-06 0)
(0.000474273431399 -6.71906041553e-06 0)
(0.000481023894928 -5.36125727188e-06 0)
(0.000486193837715 -3.88157409444e-06 0)
(0.000489672885233 -2.32144826235e-06 0)
(0.000491396168272 -7.24920780415e-07 0)
(0.000491345424647 8.64811366164e-07 0)
(0.000489546869646 2.40830026893e-06 0)
(0.000486066566412 3.87175753462e-06 0)
(0.00048100430297 5.22787267705e-06 0)
(0.000474486960035 6.45571631508e-06 0)
(0.000466662103476 7.54009867613e-06 0)
(0.00045769217579 8.47078340514e-06 0)
(0.000447749334897 9.24184385991e-06 0)
(0.000437010790279 9.85127903428e-06 0)
(0.000425654439296 1.03008503641e-05 0)
(0.000413854678578 1.0596004476e-05 0)
(0.000401778396627 1.07457227376e-05 0)
(0.000389581281186 1.0762176891e-05 0)
(0.000377404651693 1.06601441863e-05 0)
(0.000365373032144 1.04562154166e-05 0)
(0.000353592619491 1.01678877458e-05 0)
(0.000342150702299 9.8126585014e-06 0)
(0.0003311159765 9.40722566544e-06 0)
(0.000320539616614 8.96686786448e-06 0)
(0.000310456907619 8.50503510172e-06 0)
(0.000300889226869 8.03314482236e-06 0)
(0.000291846180733 7.56055222291e-06 0)
(0.000283327735205 7.09465145445e-06 0)
(0.00027532622279 6.64106243934e-06 0)
(0.000267828150315 6.20386354862e-06 0)
(0.00026081576878 5.78583888689e-06 0)
(0.000254268394463 5.38871845844e-06 0)
(0.000248163490023 5.01339762126e-06 0)
(0.000242477526418 4.66012898114e-06 0)
(0.000237186652662 4.32868440736e-06 0)
(0.000232267202402 4.01848807154e-06 0)
(0.000227696065563 3.72872301678e-06 0)
(0.000223450950867 3.45841475609e-06 0)
(0.000219510561866 3.20649547826e-06 0)
(0.000215854705676 2.97185243858e-06 0)
(0.000212464350276 2.75336363637e-06 0)
(0.000209321643157 2.54992359266e-06 0)
(0.000206409901453 2.36046148639e-06 0)
(0.000203713581366 2.1839536322e-06 0)
(0.000201218232786 2.0194318232e-06 0)
(0.000198910443359 1.86598889235e-06 0)
(0.000196777774941 1.72278252254e-06 0)
(0.000194808694177 1.58903828341e-06 0)
(0.00019299249797 1.46405268436e-06 0)
(0.000191319233639 1.347197097e-06 0)
(0.000189779612683 1.23792335017e-06 0)
(0.000188364916081 1.13577199785e-06 0)
(0.000187066888024 1.04038438581e-06 0)
(0.00018587761372 9.51520041418e-07 0)
(0.000184789375438 8.69081323512e-07 0)
(0.000183794479138 7.93148044726e-07 0)
(0.000182885041922 7.24025748541e-07 0)
(0.000182052728136 6.62312880319e-07 0)
(0.000181288419789 6.08994183282e-07 0)
(0.000180581806161 5.65570644708e-07 0)
(0.000179920881623 5.34239782745e-07 0)
(0.000179291358331 5.18142299772e-07 0)
(0.000178676053968 5.2168381118e-07 0)
(0.000178054460288 5.50892880254e-07 0)
(0.0001774030834 6.13572743083e-07 0)
(0.000176698112267 7.18189006819e-07 0)
(0.000175924864975 8.66848672572e-07 0)
(0.000175097134868 1.01637203713e-06 0)
(0.00122478515693 0.000267845952579 0)
(0.00124106068083 0.000383669343267 0)
(0.00119604654605 0.000347960448183 0)
(0.00111306248816 0.000284420268739 0)
(0.00101972711364 0.000226083093799 0)
(0.000929747867481 0.000179170811698 0)
(0.000848565024907 0.00014290010383 0)
(0.000777583049817 0.000115076687784 0)
(0.000716442652034 9.36256982174e-05 0)
(0.000664125816759 7.69129862805e-05 0)
(0.000619459645793 6.37270999952e-05 0)
(0.000581327749393 5.31877022595e-05 0)
(0.000548745372327 4.46566058596e-05 0)
(0.000520874194381 3.76683242563e-05 0)
(0.000497012645383 3.18797875875e-05 0)
(0.000476578081781 2.70349810621e-05 0)
(0.0004590878989 2.2940302402e-05 0)
(0.000444142345233 1.94473727804e-05 0)
(0.0004314098713 1.64409705955e-05 0)
(0.000420615028402 1.38304823877e-05 0)
(0.000411528628139 1.15437794841e-05 0)
(0.000403959795834 9.5227807744e-06 0)
(0.000397749566342 7.72019865253e-06 0)
(0.000392765718457 6.09712411089e-06 0)
(0.000388898597701 4.62121353922e-06 0)
(0.000386057726458 3.26531212813e-06 0)
(0.000384169041666 2.00639779793e-06 0)
(0.000383172633524 8.24763657045e-07 0)
(0.000383020884666 -2.96619554619e-07 0)
(0.00038367692892 -1.37260188315e-06 0)
(0.000385113363787 -2.41624304179e-06 0)
(0.000387311163379 -3.43911750416e-06 0)
(0.000390258746401 -4.45154762264e-06 0)
(0.000393951158238 -5.46277335304e-06 0)
(0.000398389329844 -6.48106504873e-06 0)
(0.000403579377864 -7.51378177997e-06 0)
(0.00040953191035 -8.56737485836e-06 0)
(0.000416261301061 -9.64733336236e-06 0)
(0.000423784892708 -1.07580665276e-05 0)
(0.00043212208609 -1.19027157964e-05 0)
(0.000441293268072 -1.30828885544e-05 0)
(0.000451318527701 -1.429830529e-05 0)
(0.000462216107096 -1.55463540022e-05 0)
(0.000474000533783 -1.68215497008e-05 0)
(0.000486680385488 -1.81149052069e-05 0)
(0.00050025564984 -1.94132319668e-05 0)
(0.000514714662691 -2.06984086943e-05 0)
(0.00053003064337 -2.19466803255e-05 0)
(0.000546157895739 -2.31280806895e-05 0)
(0.000563027812489 -2.42061049378e-05 0)
(0.000580544905093 -2.51377878511e-05 0)
(0.000598583178263 -2.58743608949e-05 0)
(0.00061698326383 -2.63626545536e-05 0)
(0.000635550807322 -2.65473699252e-05 0)
(0.000654056637897 -2.63742592982e-05 0)
(0.000672239224931 -2.5794128402e-05 0)
(0.00068980981199 -2.47674160097e-05 0)
(0.000706460411305 -2.32689371586e-05 0)
(0.000721874542515 -2.12922218215e-05 0)
(0.000735740228582 -1.88527709996e-05 0)
(0.000747764359351 -1.59895329701e-05 0)
(0.000757687166896 -1.27640294929e-05 0)
(0.000765295323757 -9.2568875879e-06 0)
(0.000770432186247 -5.5620443225e-06 0)
(0.000773004034722 -1.77947007326e-06 0)
(0.000772981787208 1.99232322069e-06 0)
(0.000770398432409 5.66265486424e-06 0)
(0.000765343107109 9.15297375134e-06 0)
(0.000757953105037 1.2398850729e-05 0)
(0.000748405080863 1.53500218533e-05 0)
(0.000736906394914 1.79692414465e-05 0)
(0.000723687092856 2.02307673258e-05 0)
(0.000708992610628 2.21190731177e-05 0)
(0.000693077052887 2.3628037296e-05 0)
(0.000676196837539 2.47605406343e-05 0)
(0.000658604587619 2.55282058842e-05 0)
(0.000640543310693 2.59509617143e-05 0)
(0.000622241057931 2.60561894876e-05 0)
(0.00060390634307 2.58773623473e-05 0)
(0.000585724600116 2.54522501088e-05 0)
(0.000567855876601 2.48208842061e-05 0)
(0.00055043382841 2.4023527497e-05 0)
(0.000533565943527 2.30988727827e-05 0)
(0.000517334809042 2.2082625995e-05 0)
(0.000501800167504 2.10065437886e-05 0)
(0.000487001487623 1.98979182976e-05 0)
(0.000472960792012 1.87794470379e-05 0)
(0.000459685526964 1.76693984729e-05 0)
(0.000447171312538 1.65819779019e-05 0)
(0.000435404464572 1.55278081967e-05 0)
(0.000424364227028 1.4514456667e-05 0)
(0.000414024689997 1.35469587057e-05 0)
(0.000404356395526 1.26283059708e-05 0)
(0.000395327650819 1.17598813274e-05 0)
(0.000386905578531 1.09418329172e-05 0)
(0.000379056938248 1.01733870958e-05 0)
(0.000371748754 9.45310403822e-06 0)
(0.000364948780771 8.77908240243e-06 0)
(0.000358625839878 8.14912010198e-06 0)
(0.000352750049241 7.56083852184e-06 0)
(0.000347292970685 7.01177679453e-06 0)
(0.000342227692599 6.4994622494e-06 0)
(0.000337528862895 6.02146211496e-06 0)
(0.000333172684115 5.57542096898e-06 0)
(0.000329136879958 5.15908751717e-06 0)
(0.000325400640185 4.77033386695e-06 0)
(0.000321944548989 4.40716979664e-06 0)
(0.000318750500229 4.06775433312e-06 0)
(0.000315801601494 3.75040654722e-06 0)
(0.000313082067689 3.45361751532e-06 0)
(0.00031057710366 3.17606524915e-06 0)
(0.000308272774227 2.91663466522e-06 0)
(0.000306155858957 2.67444479145e-06 0)
(0.000304213687935 2.44888593539e-06 0)
(0.000302433953898 2.23966996548e-06 0)
(0.000300804495431 2.04689764756e-06 0)
(0.000299313045935 1.8711476173e-06 0)
(0.00029794694452 1.71359227615e-06 0)
(0.000296692809326 1.57614573209e-06 0)
(0.000295536183987 1.46164684945e-06 0)
(0.000294461189675 1.37407264895e-06 0)
(0.000293450259103 1.31875501195e-06 0)
(0.000292484114946 1.30251287159e-06 0)
(0.000291542318858 1.33344838942e-06 0)
(0.00029060500773 1.41970159408e-06 0)
(0.000289656898669 1.56513811559e-06 0)
(0.000288694437411 1.75560704123e-06 0)
(0.000287731169119 1.91861173782e-06 0)
(0.00122190342908 0.000221157363207 0)
(0.00125325370292 0.000382732121748 0)
(0.00125068221811 0.000396483269557 0)
(0.00121261522658 0.000356948476608 0)
(0.00115407887107 0.000305426595079 0)
(0.00108748536727 0.000256400038967 0)
(0.00102031890769 0.000214020157149 0)
(0.000956550808369 0.000178706687324 0)
(0.000898015642495 0.000149671240898 0)
(0.000845341027979 0.000125858872132 0)
(0.000798512107218 0.000106276284834 0)
(0.000757197603874 9.00848964028e-05 0)
(0.000720931689252 7.66076829602e-05 0)
(0.000689211883945 6.53082103271e-05 0)
(0.000661549241534 5.57640732446e-05 0)
(0.000637491976743 4.76425045597e-05 0)
(0.000616634664823 4.06802549386e-05 0)
(0.000598619863752 3.466775672e-05 0)
(0.000583135977608 2.94369290015e-05 0)
(0.00056991345347 2.48518738422e-05 0)
(0.00055872043045 2.08017947143e-05 0)
(0.000549358415237 1.71955970673e-05 0)
(0.000541658257941 1.39577537776e-05 0)
(0.000535476539028 1.10251210669e-05 0)
(0.000530692392211 8.34447012659e-06 0)
(0.000527204745003 5.87056068721e-06 0)
(0.000524929938925 3.56462757712e-06 0)
(0.000523799683973 1.39318527365e-06 0)
(0.000523759300942 -6.72920076017e-07 0)
(0.000524766206164 -2.65926063858e-06 0)
(0.000526788596548 -4.5884182394e-06 0)
(0.000529804297342 -6.48045016807e-06 0)
(0.000533799735777 -8.35324251982e-06 0)
(0.000538769004161 -1.02227632335e-05 0)
(0.000544712977257 -1.21032226851e-05 0)
(0.000551638448172 -1.4007143925e-05 0)
(0.000559557245273 -1.59453409346e-05 0)
(0.00056848529011 -1.79267989813e-05 0)
(0.000578441552858 -1.99584486807e-05 0)
(0.000589446857965 -2.20448224341e-05 0)
(0.000601522488631 -2.41875814898e-05 0)
(0.000614688535437 -2.63849020342e-05 0)
(0.00062896193268 -2.86307131821e-05 0)
(0.000644354127452 -3.09137870559e-05 0)
(0.000660868333081 -3.3216695854e-05 0)
(0.000678496332989 -3.55146716999e-05 0)
(0.000697214826344 -3.77744366922e-05 0)
(0.000716981346678 -3.99531103066e-05 0)
(0.000737729841882 -4.19973508469e-05 0)
(0.000759366080714 -4.38429387987e-05 0)
(0.000781763145992 -4.54150565943e-05 0)
(0.00080475738242 -4.66295433072e-05 0)
(0.000828145274917 -4.73953893143e-05 0)
(0.000851681821685 -4.76186629565e-05 0)
(0.000875081008683 -4.72079208493e-05 0)
(0.00089801896078 -4.60809436907e-05 0)
(0.000920140216331 -4.41723831351e-05 0)
(0.000941067335141 -4.14416315947e-05 0)
(0.000960413709039 -3.78799812071e-05 0)
(0.000977799020649 -3.35159649676e-05 0)
(0.00099286632973 -2.84177431528e-05 0)
(0.00100529932766 -2.26915992677e-05 0)
(0.00101483800107 -1.64761341298e-05 0)
(0.00102129092637 -9.93258431683e-06 0)
(0.00102454278876 -3.23265322866e-06 0)
(0.00102455647097 3.4540454124e-06 0)
(0.00102137000563 9.97071250914e-06 0)
(0.00101508952522 1.61806678477e-05 0)
(0.00100587978243 2.1970834701e-05 0)
(0.000993953762172 2.72520039243e-05 0)
(0.000979562488279 3.19571307926e-05 0)
(0.000962985565187 3.60390064555e-05 0)
(0.000944522515365 3.94682630224e-05 0)
(0.00092448470603 4.2232107035e-05 0)
(0.00090318761827 4.4333664012e-05 0)
(0.000880943337591 4.57915022752e-05 0)
(0.000858053344375 4.66388253414e-05 0)
(0.00083480186477 4.69219501332e-05 0)
(0.000811450140939 4.6697935428e-05 0)
(0.000788231967561 4.60314923744e-05 0)
(0.000765350732713 4.49915039285e-05 0)
(0.000742978037601 4.3647559717e-05 0)
(0.000721253801437 4.20668754876e-05 0)
(0.000700287624805 4.03118535733e-05 0)
(0.000680161107712 3.84383992236e-05 0)
(0.000660930797583 3.64949822845e-05 0)
(0.000642631465966 3.45223444643e-05 0)
(0.000625279463155 3.25537075502e-05 0)
(0.000608875961631 3.061532754e-05 0)
(0.000593409959925 2.87272547542e-05 0)
(0.00057886097143 2.69041860802e-05 0)
(0.000565201364446 2.51563263006e-05 0)
(0.000552398350271 2.34902027577e-05 0)
(0.000540415636516 2.19094011805e-05 0)
(0.000529214775044 2.04152071809e-05 0)
(0.00051875624 1.90071504579e-05 0)
(0.00050900027314 1.76834558227e-05 0)
(0.000499907532603 1.64414099897e-05 0)
(0.000491439578462 1.527765458e-05 0)
(0.000483559224754 1.41884167261e-05 0)
(0.000476230783698 1.3169687755e-05 0)
(0.00046942022386 1.22173599093e-05 0)
(0.000463095260326 1.13273294821e-05 0)
(0.000457225391596 1.04955739518e-05 0)
(0.000451781894951 9.71820920748e-06 0)
(0.000446737789434 8.99153235252e-06 0)
(0.000442067773412 8.31205442306e-06 0)
(0.00043774814172 7.67652706309e-06 0)
(0.00043375668576 7.08196643174e-06 0)
(0.000430072578504 6.52567763457e-06 0)
(0.000426676245082 6.00528255834e-06 0)
(0.00042354921862 5.51875427629e-06 0)
(0.000420673980087 5.06446106988e-06 0)
(0.000418033780359 4.64122357064e-06 0)
(0.000415612442474 4.2483885052e-06 0)
(0.000413394142625 3.88592278292e-06 0)
(0.000411363170097 3.55453099135e-06 0)
(0.000409503670142 3.25579790444e-06 0)
(0.000407799381057 2.9923531948e-06 0)
(0.000406233389782 2.76804603375e-06 0)
(0.000404787952996 2.58809587148e-06 0)
(0.000403444468214 2.45913978989e-06 0)
(0.000402183738644 2.3889958546e-06 0)
(0.000400986759299 2.3857362693e-06 0)
(0.00039983633733 2.45514364084e-06 0)
(0.000398719760002 2.59438061915e-06 0)
(0.000397631574104 2.77701094756e-06 0)
(0.000396570171721 2.92187840326e-06 0)
(0.00121688102301 0.000182372906261 0)
(0.00124883809228 0.000358209218802 0)
(0.00126504394882 0.000407371777061 0)
(0.00125469544799 0.000394475437722 0)
(0.00122357971962 0.000357551693613 0)
(0.00118001912089 0.00031442901826 0)
(0.00113057528811 0.000272601445373 0)
(0.00107963401245 0.000234834749249 0)
(0.0010298914961 0.000201820836483 0)
(0.000982885376502 0.000173389986101 0)
(0.000939403075114 0.000149056368661 0)
(0.000899764313289 0.000128258053646 0)
(0.000864007650298 0.000110457079525 0)
(0.000832010389467 9.51758564313e-05 0)
(0.000803564141197 8.20052947235e-05 0)
(0.000778421547656 7.06011187245e-05 0)
(0.000756324528886 6.06759492145e-05 0)
(0.000737020823788 5.19905468312e-05 0)
(0.000720273196935 4.43456305947e-05 0)
(0.000705864107203 3.75747653374e-05 0)
(0.000693597614721 3.15383984693e-05 0)
(0.000683299647925 2.61189556155e-05 0)
(0.000674817334168 2.1216847141e-05 0)
(0.000668017830888 1.67472313385e-05 0)
(0.000662786925105 1.26373945053e-05 0)
(0.000659027561714 8.82462959494e-06 0)
(0.000656658393087 5.2545167366e-06 0)
(0.000655612399582 1.87952865436e-06 0)
(0.000655835603442 -1.34209942418e-06 0)
(0.000657285879801 -4.44727715643e-06 0)
(0.000659931859322 -7.46878496703e-06 0)
(0.000663751911327 -1.04358485253e-05 0)
(0.000668733187763 -1.33745701334e-05 0)
(0.000674870704238 -1.63082302341e-05 0)
(0.000682166431999 -1.92574647683e-05 0)
(0.000690628370969 -2.22403182123e-05 0)
(0.000700269570117 -2.5272167403e-05 0)
(0.000711107057275 -2.83655067686e-05 0)
(0.000723160636129 -3.15295822225e-05 0)
(0.00073645150355 -3.47698583016e-05 0)
(0.000751000636163 -3.80873026173e-05 0)
(0.000766826891688 -4.14774734629e-05 0)
(0.000783944769067 -4.49294027939e-05 0)
(0.000802361773212 -4.84242786785e-05 0)
(0.000822075337307 -5.19339519187e-05 0)
(0.000843069270615 -5.54193222616e-05 0)
(0.000865309725905 -5.88287035091e-05 0)
(0.00088874072162 -6.20963235611e-05 0)
(0.000913279313456 -6.51411840184e-05 0)
(0.000938810590693 -6.78665766342e-05 0)
(0.000965182774385 -7.01606185468e-05 0)
(0.000992202812489 -7.18982030532e-05 0)
(0.00101963298863 -7.29447423503e-05 0)
(0.00104718916511 -7.31619750884e-05 0)
(0.00107454133713 -7.24159084238e-05 0)
(0.0011013171511 -7.05866627959e-05 0)
(0.00112710890728 -6.75796176903e-05 0)
(0.00115148431302 -6.33368663727e-05 0)
(0.00117400088027 -5.78476368812e-05 0)
(0.00119422339117 -5.11560873841e-05 0)
(0.00121174332225 -4.33648245051e-05 0)
(0.00122619858812 -3.46327549919e-05 0)
(0.0012372915651 -2.51666132183e-05 0)
(0.00124480327045 -1.52067326741e-05 0)
(0.00124860197459 -5.00908146258e-06 0)
(0.00124864543077 5.1733114358e-06 0)
(0.00124497709294 1.51062119853e-05 0)
(0.00123771774509 2.45849454785e-05 0)
(0.00122705449273 3.34394884389e-05 0)
(0.0012132289503 4.15348377365e-05 0)
(0.00119652587673 4.87685595231e-05 0)
(0.00117726278541 5.50674992559e-05 0)
(0.00115578047774 6.03850288e-05 0)
(0.00113243416442 6.46993608889e-05 0)
(0.00110758483694 6.80127201176e-05 0)
(0.00108159074218 7.03507157624e-05 0)
(0.00105479907752 7.17611648359e-05 0)
(0.00102753825154 7.2311813573e-05 0)
(0.00100011117031 7.20867777181e-05 0)
(0.000972789982712 7.11819158586e-05 0)
(0.000945812573892 6.96996336376e-05 0)
(0.000919380889468 6.7743724165e-05 0)
(0.000893660969562 6.54147870086e-05 0)
(0.000868784417884 6.28065955534e-05 0)
(0.00084485094833 6.00035742636e-05 0)
(0.000821931636134 5.70793649055e-05 0)
(0.000800072534815 5.40963347917e-05 0)
(0.000779298382156 5.11058170415e-05 0)
(0.000759616189672 4.81488603798e-05 0)
(0.000741018577629 4.52572875839e-05 0)
(0.000723486774885 4.24548996406e-05 0)
(0.000706993247155 3.97587054834e-05 0)
(0.000691503949217 3.71800962682e-05 0)
(0.00067698021774 3.4725915735e-05 0)
(0.000663380334181 3.23994024758e-05 0)
(0.000650660793675 3.02009972853e-05 0)
(0.000638777317955 2.81290197035e-05 0)
(0.000627685649558 2.61802245581e-05 0)
(0.000617342162093 2.43502523851e-05 0)
(0.000607704317814 2.26339888142e-05 0)
(0.000598730999967 2.10258475291e-05 0)
(0.000590382743417 1.95199904722e-05 0)
(0.000582621883398 1.81104973629e-05 0)
(0.000575412638815 1.67914951812e-05 0)
(0.00056872114348 1.55572566448e-05 0)
(0.000562515435981 1.44022754956e-05 0)
(0.000556765416571 1.3321325152e-05 0)
(0.00055144277744 1.2309506477e-05 0)
(0.000546520911032 1.13622895904e-05 0)
(0.000541974799617 1.04755542479e-05 0)
(0.000537780888123 9.64563287185e-06 0)
(0.000533916941273 8.86936020887e-06 0)
(0.000530361885439 8.14413337487e-06 0)
(0.00052709563528 7.46798597672e-06 0)
(0.000524098905481 6.83967957465e-06 0)
(0.000521353008852 6.25881496524e-06 0)
(0.000518839644184 5.72596378092e-06 0)
(0.000516540681084 5.24281696742e-06 0)
(0.00051443795548 4.81233867082e-06 0)
(0.00051251309966 4.43889859335e-06 0)
(0.000510747446041 4.12832580547e-06 0)
(0.0005091220652 3.88776878329e-06 0)
(0.000507618024272 3.72513194968e-06 0)
(0.000506216968585 3.64763111811e-06 0)
(0.000504902082601 3.65855398028e-06 0)
(0.000503659177236 3.75045144114e-06 0)
(0.000502476453829 3.89184889265e-06 0)
(0.000501338783325 4.0061133712e-06 0)
(0.00121277305806 0.000152718819116 0)
(0.00124139044427 0.000327288830946 0)
(0.00126498956368 0.000398487162365 0)
(0.00127066327979 0.000408034810709 0)
(0.00125868716342 0.000387084138478 0)
(0.00123371537931 0.000353428928891 0)
(0.00120059523263 0.000316165486715 0)
(0.00116316778613 0.000279639402615 0)
(0.00112417491185 0.000245751546405 0)
(0.00108546168439 0.000215178596057 0)
(0.00104821006612 0.000188001651378 0)
(0.00101313422555 0.000164027346591 0)
(0.000980627887288 0.000142950761365 0)
(0.000950870563793 0.00012443673277 0)
(0.000923902286303 0.000108158918348 0)
(0.000899675342851 9.38170066797e-05 0)
(0.0008780896472 8.11427506792e-05 0)
(0.000859016625491 6.99004476092e-05 0)
(0.000842315128297 5.98848297551e-05 0)
(0.000827841846506 5.09179140648e-05 0)
(0.000815457964946 4.28456006377e-05 0)
(0.000805033258679 3.55344038656e-05 0)
(0.000796448465048 2.88684841474e-05 0)
(0.000789596505019 2.27470360387e-05 0)
(0.000784382946845 1.70820327054e-05 0)
(0.00078072597988 1.17963012627e-05 0)
(0.000778556079491 6.82189419545e-06 0)
(0.000777815483634 2.09872130516e-06 0)
(0.00077845755969 -2.4265905573e-06 0)
(0.000780446108287 -6.80162879256e-06 0)
(0.00078375463395 -1.10689554932e-05 0)
(0.000788365597803 -1.52667098968e-05 0)
(0.000794269650992 -1.94290533649e-05 0)
(0.000801464840695 -2.35864669425e-05 0)
(0.00080995577429 -2.77659017802e-05 0)
(0.000819752720653 -3.19907772911e-05 0)
(0.000830870621573 -3.62808172963e-05 0)
(0.000843327980577 -4.06517098169e-05 0)
(0.000857145590973 -4.51145727725e-05 0)
(0.0008723450595 -4.96752052857e-05 0)
(0.000888947077156 -5.43331043756e-05 0)
(0.000906969384793 -5.90802298643e-05 0)
(0.000926424378976 -6.38995091166e-05 0)
(0.000947316304605 -6.87630891083e-05 0)
(0.000969637986725 -7.36303701869e-05 0)
(0.000993367067485 -7.84458957857e-05 0)
(0.00101846173855 -8.31372291183e-05 0)
(0.00104485599875 -8.76130215886e-05 0)
(0.00107245452553 -9.1761567289e-05 0)
(0.00110112733139 -9.54502342247e-05 0)
(0.00113070448393 -9.85262503185e-05 0)
(0.00116097129813 -0.000100819372484 0)
(0.00119166454927 -0.000102146945463 0)
(0.00122247038295 -0.000102321724531 0)
(0.00125302467925 -0.000101162567802 0)
(0.00128291662234 -9.85077002614e-05 0)
(0.00131169609938 -9.42297539536e-05 0)
(0.00133888528609 -8.82512654099e-05 0)
(0.00136399437531 -8.05588412946e-05 0)
(0.00138654088674 -7.12138583404e-05 0)
(0.00140607138598 -6.0357444874e-05 0)
(0.00142218379236 -4.82077776693e-05 0)
(0.00143454790657 -3.50486639655e-05 0)
(0.0014429215891 -2.12100648276e-05 0)
(0.00144716044024 -7.04331334088e-06 0)
(0.00144721994611 7.10455820575e-06 0)
(0.00144315057804 2.09126337081e-05 0)
(0.00143508768777 3.41007105467e-05 0)
(0.00142323868254 4.64359166531e-05 0)
(0.0014078697287 5.77328299206e-05 0)
(0.00138929339684 6.7849887044e-05 0)
(0.00136785769598 7.66848703037e-05 0)
(0.00134393623925 8.41713226687e-05 0)
(0.00131791898869 9.02765275728e-05 0)
(0.0012902030915 9.5000672827e-05 0)
(0.00126118360931 9.83762344979e-05 0)
(0.00123124430031 0.000100466515579 0)
(0.00120074890866 0.000101362578887 0)
(0.00117003355428 0.000101178350122 0)
(0.00113940076988 0.000100044222063 0)
(0.00110911553815 9.8099879651e-05 0)
(0.00107940341874 9.548719905e-05 0)
(0.00105045060495 9.23439684359e-05 0)
(0.00102240557279 8.87989261056e-05 0)
(0.000995381899744 8.496831981e-05 0)
(0.000969461826551 8.09539433512e-05 0)
(0.000944700186401 7.68424411889e-05 0)
(0.000921128404291 7.27055931807e-05 0)
(0.000898758352429 6.86012803455e-05 0)
(0.000877585922763 6.45748646721e-05 0)
(0.000857594238507 6.06607680885e-05 0)
(0.000838756472026 5.68840925965e-05 0)
(0.000821038268045 5.32621748933e-05 0)
(0.000804399791518 4.98060110911e-05 0)