/*--------------------------------*- C++ -*----------------------------------*\
  =========                 |
  \\      /  F ield         | OpenFOAM: The Open Source CFD Toolbox
   \\    /   O peration     | Website:  https://openfoam.org
    \\  /    A nd           | Version:  7
     \\/     M anipulation  |
\*---------------------------------------------------------------------------*/
FoamFile
{
    version     2.0;
    format      ascii;
    class       volScalarField;
    location    "660";
    object      p;
}
// * * * * * * * * * * * * * * * * * * * * * * * * * * * * * * * * * * * * * //

dimensions      [0 2 -2 0 0 0 0];

internalField   nonuniform List<scalar> 
8192
(
0.00068120280493
0.000509670951793
0.00042410050994
0.000380049536123
0.000355093036145
0.000339923158303
0.000330117767977
0.000323430190062
0.000318652686286
0.000315101127584
0.000312368459104
0.000310201262121
0.000308435218308
0.000306959913011
0.000305698833197
0.000304597543191
0.000303616429894
0.000302726095589
0.000301904337783
0.000301134111375
0.000300402116305
0.000299697794255
0.000299012598458
0.000298339449618
0.000297672319875
0.000297005905874
0.000296335362837
0.000295656081484
0.000294963493031
0.000294252890665
0.000293519258577
0.000292757102128
0.000291960273174
0.000291121786618
0.000290233624535
0.000289286526628
0.000288269766638
0.00028717091787
0.000285975613304
0.000284667311118
0.000283227080858
0.000281633432831
0.000279862219134
0.000277886642208
0.000275677410295
0.000273203080928
0.000270430626827
0.000267326245806
0.000263856411966
0.000259989136042
0.000255695368146
0.000250950449494
0.000245735505162
0.000240038679918
0.000233856148584
0.000227192877547
0.000220063152013
0.00021249090417
0.000204509868372
0.000196163562083
0.000187505039529
0.000178596289441
0.000169507064621
0.000160312933753
0.000151092517025
0.000141924184705
0.000132882764082
0.000124036835786
0.000115447014678
0.000107165271029
9.9235035417e-05
9.16917036364e-05
8.45632043283e-05
7.78704270121e-05
7.16274405438e-05
6.5841541801e-05
6.05132482429e-05
5.56363822957e-05
5.11983752392e-05
4.71808615606e-05
4.35605597322e-05
4.03103739208e-05
3.74006114494e-05
3.48002028557e-05
3.24778237791e-05
3.0402847839e-05
2.85460913376e-05
2.68803424789e-05
2.5380689353e-05
2.4024676719e-05
2.27923264921e-05
2.16660586295e-05
2.0630544112e-05
1.96725177293e-05
1.87805709154e-05
1.79449407111e-05
1.71573046232e-05
1.64105887547e-05
1.56987921666e-05
1.50168298036e-05
1.43603933857e-05
1.37258302227e-05
1.311003787e-05
1.25103737516e-05
1.19245772855e-05
1.13507035565e-05
1.07870661884e-05
1.02321886879e-05
9.68476221832e-06
9.14360941832e-06
8.60765261002e-06
8.07588644266e-06
7.5473538371e-06
7.02112594097e-06
6.49628589461e-06
5.97191849879e-06
5.44710776606e-06
4.92094800284e-06
4.39257644298e-06
3.86124364122e-06
3.32644880467e-06
2.7881922867e-06
2.24744303668e-06
1.70701840115e-06
1.17329390075e-06
6.59711813288e-07
1.95405581619e-07
-7.40641206089e-08
0.000532271021189
0.000468775370544
0.000419125619412
0.000386525769773
0.000364659379195
0.000349530939368
0.00033875879916
0.00033087653891
0.00032495824353
0.000320405378356
0.000316822014167
0.000313940239823
0.000311574750718
0.000309594685133
0.000307905817454
0.000306439073117
0.000305142969739
0.000303978541467
0.000302915862916
0.000301931622742
0.000301007398031
0.000300128404715
0.000299282576037
0.000298459870341
0.000297651740605
0.00029685071917
0.000296050083384
0.000295243580232
0.000294425192143
0.000293588929689
0.000292728641235
0.000291837832036
0.000290909486477
0.000289935889192
0.000288908441657
0.000287817473011
0.000286652045052
0.000285399754291
0.000284046536167
0.000282576480789
0.000280971673235
0.000279212077101
0.000277275484538
0.000275137561545
0.000272772019807
0.000270150947261
0.000267245324008
0.000264025739627
0.000260463308503
0.00025653075586
0.00025220361918
0.000247461487356
0.000242289187495
0.000236677836251
0.000230625696341
0.000224138815773
0.000217231459225
0.000209926357441
0.00020225479316
0.000194256522717
0.000185979499321
0.000177479308728
0.000168818151836
0.000160063192111
0.000151284218632
0.000142550852596
0.000133929759763
0.000125482351511
0.000117263305483
0.000109319947539
0.000101692271109
9.44132760664e-05
8.75093624815e-05
8.1000628451e-05
7.49010216903e-05
6.92183752396e-05
6.39544158016e-05
5.91048614228e-05
5.46597090272e-05
5.0603765226e-05
4.6917413315e-05
4.3577560367e-05
4.05586778579e-05
3.78338435853e-05
3.53757033821e-05
3.31572950477e-05
3.11527024607e-05
2.9337532971e-05
2.76892285806e-05
2.61872338992e-05
2.4813048235e-05
2.35501907335e-05
2.23841041111e-05
2.13020194606e-05
2.0292799153e-05
1.93467714552e-05
1.84555657472e-05
1.76119550499e-05
1.68097092197e-05
1.60434613027e-05
1.53085873282e-05
1.46010998896e-05
1.39175543694e-05
1.3254967278e-05
1.26107450797e-05
1.19826227668e-05
1.13686105406e-05
1.07669479699e-05
1.01760641863e-05
9.59454375106e-06
9.02109707641e-06
8.45453542977e-06
7.89374989435e-06
7.33769495406e-06
6.78537695984e-06
6.23584940088e-06
5.68821710605e-06
5.14165412777e-06
4.59544182804e-06
4.04903883777e-06
3.50220049524e-06
2.95517746202e-06
2.40904101543e-06
1.86621600357e-06
1.33135922812e-06
8.12869177325e-07
3.24894392886e-07
-1.70905507188e-08
0.000449276782481
0.000426634769515
0.000400682416529
0.000379492336809
0.000363420674405
0.000351154848508
0.000341673375669
0.000334247530672
0.000328354779748
0.000323615760334
0.00031975221976
0.000316558265534
0.000313880252546
0.000311602524838
0.000309637233392
0.000307917025534
0.00030638976666
0.00030501470454
0.000303759660321
0.000302598953608
0.000301511854706
0.000300481418077
0.000299493592716
0.0002985365353
0.000297600072127
0.000296675270883
0.000295754091612
0.000294829098487
0.000293893215363
0.000292939511208
0.000291961006298
0.000290950492121
0.000289900358827
0.000288802426343
0.000287647775767
0.000286426579966
0.000285127933031
0.000283739681066
0.000282248258292
0.000280638536339
0.000278893697224
0.000276995145591
0.000274922479297
0.000272653542609
0.000270164588478
0.00026743057807
0.000264425641376
0.00026112371471
0.000257499353898
0.000253528700948
0.000249190555302
0.000244467479036
0.000239346851284
0.000233821792745
0.000227891903392
0.000221563794543
0.00021485142941
0.000207776302677
0.000200367479897
0.000192661502503
0.000184702146041
0.000176539973897
0.000168231526173
0.000159837917928
0.000151422735816
0.00014304944172
0.000134778766581
0.000126666590672
0.000118762644443
0.000111110049586
0.000103745432469
9.66992755137e-05
8.99962654339e-05
8.36555261446e-05
7.76907083361e-05
7.21099703063e-05
6.69159362982e-05
6.21057467179e-05
5.76712960815e-05
5.3599705555e-05
4.98740170583e-05
4.64740513539e-05
4.33773467994e-05
4.0560093878e-05
3.79979927228e-05
3.56669846135e-05
3.35438316038e-05
3.16065409927e-05
2.98346455272e-05
2.82093606069e-05
2.67136422579e-05
2.53321707965e-05
2.40512814159e-05
2.28588606347e-05
2.1744222478e-05
2.06979759473e-05
1.97118909938e-05
1.87787689647e-05
1.78923202791e-05
1.70470518966e-05
1.62381648282e-05
1.54614624722e-05
1.47132688203e-05
1.39903565388e-05
1.32898835115e-05
1.26093376201e-05
1.19464882823e-05
1.12993445654e-05
1.0666118528e-05
1.00451937915e-05
9.43509824356e-06
8.83448117276e-06
8.24209411556e-06
7.65677618804e-06
7.07744380662e-06
6.50308639728e-06
5.93276913513e-06
5.36564588128e-06
4.80098556523e-06
4.23821829129e-06
3.67700889166e-06
3.11737075631e-06
2.55983760744e-06
2.00572091989e-06
1.45748924276e-06
9.19229763848e-07
3.96328434722e-07
-1.30289540767e-09
0.000404662958458
0.000396310884783
0.000382160533254
0.000368411309284
0.000357023714581
0.000347785055956
0.00034024157605
0.000334024527186
0.000328855560597
0.000324522051023
0.000320858241775
0.000317733085237
0.000315042135714
0.000312701754035
0.000310644729974
0.000308816872318
0.000307174316844
0.000305681391635
0.000304308922514
0.000303032887229
0.000301833345085
0.000300693583373
0.000299599433584
0.000298538720252
0.000297500813185
0.000296476259106
0.000295456473083
0.000294433478956
0.000293399686125
0.000292347691234
0.000291270098623
0.000290159353727
0.000289007584552
0.000287806447777
0.000286546976762
0.000285219430177
0.000283813140951
0.00028231636711
0.000280716147708
0.000278998169903
0.000277146655956
0.000275144283029
0.000272972152536
0.000270609830574
0.000268035484385
0.000265226142179
0.000262158101649
0.000258807505762
0.000255151089492
0.000251167079611
0.000246836202118
0.000242142726141
0.00023707545624
0.000231628588078
0.000225802367934
0.000219603541038
0.000213045615783
0.000206148988001
0.00019894095322
0.000191455617182
0.000183733717673
0.000175822337287
0.000167774331981
0.000159647141408
0.000151500755339
0.000143395050122
0.000135387092781
0.000127529011687
0.000119866826078
0.000112440220119
0.000105282880574
9.84229794639e-05
9.18835587821e-05
8.56827431319e-05
7.98337769133e-05
7.4344927971e-05
6.92193568826e-05
6.44550847282e-05
6.00451683785e-05
5.59781299133e-05
5.22386190326e-05
4.8808240207e-05
4.56664542156e-05
4.27914659395e-05
4.01610274766e-05
3.77531116488e-05
3.55464360781e-05
3.35208393115e-05
3.16575238e-05
2.99391881953e-05
2.83500729012e-05
2.68759419456e-05
2.55040206057e-05
2.4222904962e-05
2.30224553871e-05
2.18936832239e-05
2.08286367504e-05
1.98202909195e-05
1.88624432861e-05
1.79496178682e-05
1.707697737e-05
1.62402441296e-05
1.54356292878e-05
1.46597699452e-05
1.39096734517e-05
1.31826684169e-05
1.24763615294e-05
1.17885998014e-05
1.11174374161e-05
1.04611069249e-05
9.81799414172e-06
9.18661668177e-06
8.56560573196e-06
7.95369128384e-06
7.34969076838e-06
6.75250175605e-06
6.16109922487e-06
5.57453880243e-06
4.99196751586e-06
4.4126449519e-06
3.8359786598e-06
3.26158032309e-06
2.68935186004e-06
2.11961256471e-06
1.55325738783e-06
9.91781730746e-07
4.36266221587e-07
1.45746506646e-09
0.000376980844741
0.000375059314186
0.000367305876081
0.00035815464036
0.000349909955234
0.000342908634622
0.000336993384357
0.000331958757219
0.00032763639621
0.000323896661778
0.000320638341196
0.0003177802325
0.000315255732983
0.000313009450605
0.000310994962518
0.000309173202412
0.000307511209178
0.000305981106269
0.000304559247208
0.000303225492583
0.000301962596409
0.00030075568535
0.000299591816696
0.000298459602858
0.00029734889205
0.000296250492973
0.000295155935503
0.000294057263497
0.000292946851768
0.000291817239225
0.000290660975201
0.000289470474989
0.000288237881132
0.000286954927862
0.000285612806558
0.000284202031043
0.000282712302276
0.000281132373393
0.000279449917422
0.000277651402344
0.00027572198069
0.000273645404716
0.000271403982224
0.000268978593326
0.000266348793025
0.000263493028393
0.000260388999339
0.000257014186946
0.0002533465595
0.000249365443479
0.000245052515543
0.000240392839672
0.000235375850738
0.00022999618594
0.000224254295631
0.000218156822455
0.000211716795565
0.000204953707241
0.000197893506534
0.00019056851591
0.000183017314812
0.000175284639508
0.000167421110888
0.000159482270379
0.000151526500885
0.000143612072784
0.000135794126789
0.000128122385758
0.00012064009282
0.000113384107676
0.000106385582191
9.96706469866e-05
9.32608645425e-05
8.7173437182e-05
8.14211935191e-05
7.60123971819e-05
7.09504978623e-05
6.62339945038e-05
6.18565454266e-05
5.78073742307e-05
5.40719368458e-05
5.06327633486e-05
4.74703691492e-05
4.45641381764e-05
4.18931046764e-05
3.94365914425e-05
3.71746907082e-05
3.50885957506e-05
3.31608036561e-05
3.13752152324e-05
2.97171576756e-05
2.81733529415e-05
2.67318502533e-05
2.53819372264e-05
2.41140399452e-05
2.29196195334e-05
2.17910700043e-05
2.0721620703e-05
1.97052450206e-05
1.87365764816e-05
1.78108323571e-05
1.69237448838e-05
1.60714995844e-05
1.52506803697e-05
1.44582207008e-05
1.36913603939e-05
1.29476073323e-05
1.22247037095e-05
1.15205961429e-05
1.08334093815e-05
1.01614230625e-05
9.50305136698e-06
8.85682517344e-06
8.22137671589e-06
7.59542653364e-06
6.97777295114e-06
6.36728418629e-06
5.76289377488e-06
5.16360010047e-06
4.56847180758e-06
3.97666156108e-06
3.38743210963e-06
2.80019821871e-06
2.21458025166e-06
1.630421677e-06
1.04755340689e-06
4.64638819278e-07
2.1835774889e-09
0.000358575607378
0.000359529614794
0.000355539084241
0.000349447564202
0.000343388213996
0.000337983372414
0.000333283819534
0.000329194803817
0.000325609839002
0.000322440526199
0.000319617562907
0.000317086178272
0.000314801927528
0.000312727787549
0.000310832302757
0.000309088399688
0.000307472589784
0.000305964390594
0.000304545871747
0.000303201276951
0.000301916697317
0.000300679783488
0.000299479489582
0.000298305844561
0.000297149749145
0.000296002789619
0.000294857069838
0.000293705060658
0.000292539461743
0.000291353071052
0.000290138661223
0.000288888860483
0.000287596035848
0.000286252176799
0.000284848777807
0.000283376718659
0.00028182614198
0.000280186328381
0.000278445570712
0.000276591050903
0.000274608725211
0.000272483227342
0.000270197803346
0.000267734297956
0.000265073218111
0.000262193905293
0.000259074851114
0.000255694187816
0.000252030372533
0.000248063059208
0.000243774115186
0.000239148698483
0.000234176279481
0.000228851485954
0.000223174686181
0.000217152301824
0.000210796926859
0.000204127357437
0.000197168572555
0.000189951644438
0.000182513657479
0.000174897824105
0.000167153629257
0.00015933617318
0.000151503947887
0.000143715340391
0.000136025033419
0.000128481405115
0.000121125586746
0.000113992023023
0.000107109629803
0.000100502739727
9.41916223396e-05
8.81926856102e-05
8.25184083035e-05
7.717702963e-05
7.21721452733e-05
6.75024406394e-05
6.31617355254e-05
5.91393895711e-05
5.5421011548e-05
5.19893588498e-05
4.88252992933e-05
4.59087236277e-05
4.32193304624e-05
4.07372441552e-05
3.84434593795e-05
3.63201290668e-05
3.43507237632e-05
3.25200934948e-05
3.08144605266e-05
2.92213666302e-05
2.77295927883e-05
2.63290644675e-05
2.50107513403e-05
2.37665674323e-05
2.2589275241e-05
2.14723959993e-05
2.04101270132e-05
1.9397266502e-05
1.84291457518e-05
1.75015683172e-05
1.66107556839e-05
1.57532989179e-05
1.49261156307e-05
1.41264117814e-05
1.33516476856e-05
1.25995078219e-05
1.18678738875e-05
1.11548007819e-05
1.04584950602e-05
9.77729562555e-06
9.10965629416e-06
8.45413010183e-06
7.80935510436e-06
7.17404169414e-06
6.54696140981e-06
5.92693759646e-06
5.31283839817e-06
4.7035731301e-06
4.09809320622e-06
3.49539843435e-06
2.89454530833e-06
2.29463841313e-06
1.69473542805e-06
1.09346497134e-06
4.87951396291e-07
3.40568651959e-09
0.000345649689571
0.000347843178851
0.000346103309989
0.000342130149684
0.000337676852874
0.000333461837308
0.000329675434539
0.000326312713168
0.000323316801632
0.000320627634731
0.000318194452788
0.000315976625297
0.000313941608431
0.000312062780892
0.000310317800763
0.000308687484969
0.000307155069946
0.000305705718689
0.000304326177696
0.000303004522532
0.000301729955642
0.000300492635822
0.000299283527964
0.000298094266839
0.000296917034373
0.000295744438718
0.000294569402581
0.000293385060362
0.000292184658805
0.000290961459516
0.000289708643326
0.000288419215093
0.000287085907509
0.000285701082579
0.000284256629486
0.000282743857753
0.000281153384947
0.000279475018724
0.000277697633946
0.000275809047104
0.000273795892581
0.00027164350869
0.000269335846309
0.000266855419368
0.000264183324322
0.000261299363981
0.000258182317309
0.000254810397009
0.000251161925499
0.000247216232435
0.000242954732528
0.000238362088448
0.000233427317555
0.000228144687454
0.000222514287043
0.000216542264256
0.000210240850852
0.000203628342865
0.00019672908169
0.000189573337683
0.000182197197803
0.000174642918893
0.000166959698308
0.000159203506614
0.000151434614688
0.000143713217004
0.000136094911645
0.000128627604687
0.000121350733869
0.000114296525033
0.000107491838907
0.000100959411882
9.47184013062e-05
8.87845696643e-05
8.31701634192e-05
7.78834501706e-05
7.29281059516e-05
6.83027835939e-05
6.4001092475e-05
6.00120321404e-05
5.63207866268e-05
5.29097271486e-05
4.97594649182e-05
4.68498235283e-05
4.41606462939e-05
4.16724030293e-05
3.93666001736e-05
3.72260224037e-05
3.52348436202e-05
3.33786449196e-05
3.16443715049e-05
3.00202531435e-05
2.84957057228e-05
2.70612257014e-05
2.57082848888e-05
2.44292299535e-05
2.32171889837e-05
2.20659861277e-05
2.09700645073e-05
1.99244171452e-05
1.89245253682e-05
1.79663040494e-05
1.7046052994e-05
1.61604138036e-05
1.53063315697e-05
1.44810208163e-05
1.36819351419e-05
1.29067400852e-05
1.21532887666e-05
1.141959992e-05
1.07038379526e-05
1.00042947246e-05
9.31937275972e-06
8.6475696527e-06
7.98746347165e-06
7.33769903264e-06
6.69697499075e-06
6.06403181724e-06
5.43764080736e-06
4.81659423773e-06
4.19969618565e-06
3.58575130305e-06
2.97354199362e-06
2.36176596186e-06
1.74886177488e-06
1.13256803131e-06
5.09004529301e-07
6.37565866713e-09
0.000336162785554
0.000338830174813
0.000338444793781
0.000335956795082
0.000332719757414
0.00032943097583
0.000326357366904
0.000323562241642
0.000321031978371
0.000318731506436
0.000316624791009
0.000314680781133
0.000312874066696
0.000311183966619
0.000309593395643
0.000308087915939
0.000306655038513
0.000305283734502
0.000303964097736
0.000302687108366
0.000301444461074
0.000300228433468
0.000299031779119
0.000297847635416
0.000296669444234
0.000295490870268
0.000294305724371
0.000293107894673
0.000291891275155
0.000290649693526
0.000289376837792
0.000288066180527
0.000286710899695
0.000285303794878
0.000283837197666
0.000282302874991
0.000280691924285
0.000278994659646
0.000277200488827
0.000275297782051
0.000273273735678
0.000271114237081
0.000268803742193
0.000266325184549
0.000263659944357
0.000260787917508
0.000257687734814
0.000254337186484
0.000250713898149
0.00024679627518
0.000242564677797
0.000238002718377
0.000233098505844
0.000227845633702
0.000222243753136
0.00021629871402
0.000210022458437
0.000203432947848
0.000196554183575
0.000189416043331
0.000182053993315
0.000174509659875
0.000166832587945
0.000159080917871
0.000151318525347
0.000143609269369
0.000136011087239
0.00012857216532
0.000121330417714
0.000114315819118
0.000107553252863
0.000101064036041
9.48663804217e-05
8.89755514606e-05
8.34037145805e-05
7.81592741713e-05
7.32459712048e-05
6.86622386301e-05
6.44011203956e-05
6.04507720067e-05
5.67953918681e-05
5.34163788617e-05
5.02935190079e-05
4.74060471662e-05
4.47334921231e-05
4.22562763097e-05
3.99560882281e-05
3.78160710769e-05
3.58208777799e-05
3.39566380526e-05
3.22108734052e-05
3.05723858045e-05
2.90311368644e-05
2.75781279196e-05
2.62052866803e-05
2.49053632855e-05
2.36718366801e-05
2.24988312808e-05
2.13810432689e-05
2.03136756711e-05
1.92923812369e-05
1.8313212209e-05
1.73725760716e-05
1.64671965177e-05
1.55940788909e-05
1.47504795107e-05
1.39338782957e-05
1.31419542358e-05
1.23725632495e-05
1.1623718082e-05
1.08935698687e-05
1.01803910948e-05
9.4825596396e-06
8.7985436958e-06
8.12688730931e-06
7.46619638246e-06
6.8151249284e-06
6.17236140526e-06
5.53661473264e-06
4.90659916114e-06
4.28101573821e-06
3.65852478591e-06
3.03769574497e-06
2.41690337076e-06
1.79410631147e-06
1.16640194156e-06
5.29263857719e-07
1.18092010043e-08
0.000328951882394
0.000331736418793
0.000332164984464
0.000330721936342
0.000328416554555
0.000325867813611
0.000323370641031
0.000321033805084
0.000318879026729
0.000316893941822
0.000315056224315
0.000313343189766
0.000311734910179
0.00031021471516
0.000308768791785
0.000307385580639
0.000306055219194
0.000304769099548
0.000303519538864
0.0003022995401
0.000301102618684
0.000299922674724
0.000298753895587
0.000297590678352
0.000296427566423
0.000295259188023
0.000294080196599
0.000292885221848
0.000291668815678
0.000290425396821
0.000289149192815
0.00028783417823
0.000286474008021
0.000285061944686
0.000283590777907
0.000282052735088
0.000280439381241
0.000278741506636
0.000276949001012
0.000275050713936
0.000273034302642
0.000270886071746
0.000268590814589
0.000266131674086
0.000263490052862
0.000260645617371
0.000257576456667
0.000254259467324
0.000250671032072
0.000246788028633
0.00024258913953
0.00023805633942
0.00023317634129
0.000227941730587
0.000222351558226
0.000216411348351
0.000210132794635
0.000203533628064
0.000196637774186
0.000189475148848
0.000182080902786
0.000174496069954
0.000166770940703
0.00015896724421
0.000151154676481
0.000143403002548
0.000135774124738
0.000128317195737
0.000121068484258
0.000114055413176
0.000107300899225
0.000100825033132
9.46452247715e-05
8.87763621037e-05
8.32306974243e-05
7.80169219242e-05
7.31388484667e-05
6.85944903469e-05
6.43759346592e-05
6.04699653937e-05
5.68591974446e-05
5.35234497951e-05
5.04411133513e-05
4.75903310075e-05
4.49498917779e-05
4.24998214897e-05
4.02217083702e-05
3.8098827163e-05
3.61161274137e-05
3.42601407293e-05
3.2518847148e-05
3.08815269984e-05
2.93386140655e-05
2.78815584282e-05
2.65027027194e-05
2.51951727244e-05
2.39527818323e-05
2.27699480734e-05
2.16416223081e-05
2.056322604e-05
1.9530597514e-05
1.85399448311e-05
1.75878050555e-05
1.66710083564e-05
1.57866464488e-05
1.49320446261e-05
1.410473686e-05
1.33024434411e-05
1.25230507765e-05
1.17645929379e-05
1.1025234672e-05
1.03032555375e-05
9.59703493917e-06
8.90503776307e-06
8.22580039948e-06
7.55791684273e-06
6.90002456608e-06
6.25078962596e-06
5.6088901321e-06
4.97299627768e-06
4.3417433213e-06
3.71368991344e-06
3.08724636876e-06
2.46054299416e-06
1.83118704308e-06
1.1958402581e-06
5.49584743305e-07
2.0169180813e-08
0.00032332164615
0.000326060340262
0.000326973222603
0.000326265376159
0.000324675394693
0.000322724848656
0.000320704663361
0.000318748874917
0.000316905394353
0.000315181300327
0.00031356704616
0.000312047982927
0.000310609267593
0.000309237617482
0.000307921681139
0.000306651870446
0.000305420032469
0.000304219116498
0.000303042890052
0.000301885714123
0.000300742371373
0.000299607936274
0.000298477676279
0.0002973469768
0.000296211279243
0.000295066026949
0.000293906613345
0.000292728341092
0.000291526377565
0.000290295709011
0.000289031091872
0.0002877269999
0.00028637756568
0.000284976515057
0.000283517092772
0.000281991977379
0.000280393183235
0.000278711947186
0.00027693859751
0.000275062403141
0.00027307140241
0.000270952213373
0.000268689832973
0.000266267441347
0.000263666241456
0.000260865383589
0.000257842047027
0.000254571770928
0.000251029130186
0.000247188821839
0.000243027148548
0.000238523761554
0.000233663390035
0.000228437195151
0.000222843412421
0.000216887172931
0.000210579886743
0.000203939031957
0.000196988664398
0.000189759280701
0.00018228603202
0.000174608987267
0.000166779234469
0.000158863802559
0.000150941138796
0.000143089818491
0.000135377727183
0.000127855663898
0.000120557735444
0.000113508158045
0.000106727900111
0.000100236103255
9.40494630168e-05
8.81825226672e-05
8.26477810643e-05
7.74543928123e-05
7.26062364571e-05
6.81006381004e-05
6.39282383587e-05
6.00738195856e-05
5.65177256611e-05
5.32375228974e-05
5.02096018626e-05
4.74105042103e-05
4.48178714282e-05
4.24110167564e-05
4.01711871612e-05
3.80816055623e-05
3.61273775536e-05
3.42953277199e-05
3.25738095105e-05
3.0952515053e-05
2.94222987479e-05
2.79750204895e-05
2.66034097442e-05
2.53009493311e-05
2.40617767267e-05
2.28806004243e-05
2.1752628987e-05
2.06735106796e-05
1.96392818819e-05
1.86463227666e-05
1.76913190015e-05
1.67712284393e-05
1.58832519568e-05
1.50248077359e-05
1.41935084101e-05
1.33871405802e-05
1.26036462894e-05
1.18411060898e-05
1.10977233898e-05
1.03718097874e-05
9.6617711214e-06
8.96609396424e-06
8.28333226181e-06
7.61209375085e-06
6.95102564873e-06
6.29879880978e-06
5.65408897758e-06
5.01555263953e-06
4.38179286964e-06
3.75130657618e-06
3.12239760695e-06
2.49302924166e-06
1.86057684804e-06
1.22143886574e-06
5.70501027986e-07
3.17531101344e-08
0.000318837595569
0.000321459581858
0.000322653550266
0.000322461927948
0.000321420516447
0.000319955046145
0.000318334232578
0.000316701761683
0.000315122835277
0.00031361993726
0.000312194817744
0.000310840447126
0.00030954695767
0.000308304330021
0.000307103437175
0.000305936313758
0.000304796092618
0.000303676822788
0.000302573266065
0.000301480711731
0.000300394821662
0.000299311506025
0.000298226825004
0.000297136914483
0.00029603792253
0.000294925955204
0.00029379702889
0.00029264703114
0.00029147168038
0.000290266484724
0.000289026698262
0.000287747273152
0.000286422805906
0.000285047476034
0.000283614975017
0.000282118423174
0.000280550271556
0.000278902185519
0.0002771649062
0.000275328086049
0.000273380095229
0.000271307797894
0.000269096302314
0.000266728698248
0.000264185810984
0.000261446025572
0.000258485266146
0.000255277247088
0.000251794129124
0.000248007688003
0.000243891010642
0.000239420570698
0.00023457834511
0.000229353491828
0.000223743096031
0.000217751735809
0.000211390350471
0.000204675879428
0.000197632561043
0.000190292268608
0.000182690654146
0.000174865773985
0.000166868969256
0.000158774857784
0.000150674797211
0.00014266012175
0.000134807385983
0.000127169816908
0.00011977824625
0.000112652501914
0.00010581178759
9.92747630003e-05
9.30573373938e-05
8.71735313164e-05
8.16361982454e-05
7.64551363271e-05
7.1634215198e-05
6.71696606045e-05
6.30500022963e-05
5.92572228011e-05
5.57685654674e-05
5.25585672351e-05
4.96009528802e-05
4.68701343113e-05
4.43422106585e-05
4.19955004977e-05
3.98107134993e-05
3.77708859483e-05
3.58611864294e-05
3.40686674176e-05
3.2382009642e-05
3.07912842113e-05
2.92877432406e-05
2.78636413689e-05
2.65120863543e-05
2.52269151117e-05
2.40025911732e-05
2.28341197433e-05
2.17169770642e-05
2.06470513192e-05
1.96205928652e-05
1.86341719839e-05
1.76846427495e-05
1.67691118534e-05
1.58849115009e-05
1.50295756215e-05
1.420081882e-05
1.33965175529e-05
1.26146931394e-05
1.18534962325e-05
1.11111924604e-05
1.03861489306e-05
9.67682134008e-06
8.98174137556e-06
8.29950407678e-06
7.62875468809e-06
6.96817435277e-06
6.31646358326e-06
5.67232178501e-06
5.03441983517e-06
4.40136058369e-06
3.77161843754e-06
3.14344346094e-06
2.51470765382e-06
1.88266438876e-06
1.24359554694e-06
5.9235052453e-07
4.67280762937e-08
0.000315216624874
0.000317694559553
0.000319042799444
0.000319212007104
0.000318589958516
0.000317517403949
0.000316232421035
0.000314877490881
0.000313527476186
0.000312216073763
0.000310954402585
0.000309742324716
0.000308574746878
0.000307444880185
0.000306345792634
0.000305271056296
0.000304214940649
0.000303172394959
0.000302138945161
0.000301110566869
0.000300083562508
0.000299054453393
0.000298019888944
0.000296976575821
0.000295921216101
0.000294850450173
0.000293760812717
0.000292648693077
0.000291510296528
0.00029034160514
0.00028913833645
0.000287895898133
0.000286609336816
0.000285273278938
0.00028388186123
0.000282428647896
0.000280906530869
0.000279307608755
0.000277623039172
0.000275842858499
0.000273955762916
0.000271948845939
0.000269807291883
0.000267514034059
0.00026504940424
0.000262390829053
0.000259512670594
0.000256386356856
0.000252980983253
0.000249264553335
0.000245205921478
0.000240777288099
0.000235956832665
0.000230730858206
0.000225094741015
0.000219052168202
0.000212613141669
0.000205793235597
0.000198616496892
0.00019111743568
0.000183333288048
0.00017529783103
0.0001670609942
0.000158708408851
0.000150350600912
0.000142097194912
0.000134037211583
0.00012622744496
0.000118693362261
0.000111448336321
0.000104510496218
9.78988218251e-05
9.16279270706e-05
8.57106637935e-05
8.01602223362e-05
7.4987188268e-05
7.01951864683e-05
6.57786706865e-05
6.17231268201e-05
5.80067031349e-05
5.46025239788e-05
5.14811888628e-05
4.86130214319e-05
4.59697602515e-05
4.3525592533e-05
4.12576098642e-05
3.91458496371e-05
3.71730901291e-05
3.53245304346e-05
3.3587441011e-05
3.19508325385e-05
3.04051646673e-05
2.89421005998e-05
2.75543053658e-05
2.62352821837e-05
2.49792404229e-05
2.37809890427e-05
2.26358502469e-05
2.15395890543e-05
2.04883553768e-05
1.94786359409e-05
1.85072139922e-05
1.75711351872e-05
1.66676784331e-05
1.57943307121e-05
1.49487651257e-05
1.41288215518e-05
1.33324894236e-05
1.25578922207e-05
1.18032733299e-05
1.10669829692e-05
1.03474658932e-05
9.64324959422e-06
8.95293268462e-06
8.27517306967e-06
7.60867538018e-06
6.9521768778e-06
6.3044306046e-06
5.66418379511e-06
5.03014830514e-06
4.40095774964e-06
3.77510283591e-06
3.15083184994e-06
2.52599805245e-06
1.89783272905e-06
1.26262806606e-06
6.15335085777e-07
6.51464926573e-08
0.000312266688057
0.000314593374346
0.000316015716683
0.000316434954407
0.000316132185487
0.00031537691849
0.00031437433653
0.000313258910478
0.000312109200293
0.00031096625509
0.000309848462271
0.000308761592813
0.000307704948507
0.000306674869247
0.000305666613464
0.000304675294567
0.000303696294886
0.000302725403849
0.000301758819497
0.000300793089051
0.000299825028105
0.000298851637946
0.000297870029759
0.000296877361601
0.000295870781443
0.000294847370306
0.000293804101507
0.000292737801154
0.000291645110454
0.000290522447807
0.000289365968927
0.000288171523104
0.000286934603615
0.000285650289938
0.000284313179038
0.00028291730224
0.000281456023354
0.000279921912504
0.00027830658871
0.000276600522793
0.00027479279102
0.000272870769938
0.000270819765728
0.000268622579957
0.000266259032143
0.000263705493406
0.000260934538793
0.000257914895436
0.000254611928513
0.000250988917936
0.000247009266379
0.000242639504352
0.000237852590228
0.00023263070556
0.000226966578245
0.000220862351718
0.000214326140532
0.000207370247848
0.000200017028167
0.000192305607518
0.000184277394878
0.00017595724805
0.000167389828079
0.000158677532236
0.000149959975855
0.000141372954674
0.000133023646142
0.000124974563324
0.00011724201443
0.000109829170544
0.000102755027162
9.60401597388e-05
8.96962542844e-05
8.3733372783e-05
7.81647896083e-05
7.30019226072e-05
6.82476033314e-05
6.38934295009e-05
5.99205426743e-05
5.63019329024e-05
5.30053737051e-05
4.99964867319e-05
4.72414083602e-05
4.47086773846e-05
4.23702622717e-05
4.02018814465e-05
3.81828581585e-05
3.6295731326e-05
3.45257800392e-05
3.28605549128e-05
3.12894613991e-05
2.98034101562e-05
2.83945335283e-05
2.70559600464e-05
2.57816367845e-05
2.45661897548e-05
2.34048139259e-05
2.22931860266e-05
2.12273948189e-05
2.02038847471e-05
1.92194098877e-05
1.8270995863e-05