/*--------------------------------*- C++ -*----------------------------------*\
  =========                 |
  \\      /  F ield         | OpenFOAM: The Open Source CFD Toolbox
   \\    /   O peration     | Website:  https://openfoam.org
    \\  /    A nd           | Version:  7
     \\/     M anipulation  |
\*---------------------------------------------------------------------------*/
FoamFile
{
    version     2.0;
    format      ascii;
    class       surfaceScalarField;
    location    "660";
    object      phi;
}
// * * * * * * * * * * * * * * * * * * * * * * * * * * * * * * * * * * * * * //

dimensions      [0 3 -1 0 0 0 0];

internalField   nonuniform List<scalar> 
16192
(
6.92886659319e-10
2.44613340681e-10
4.93490154519e-10
1.99396509056e-10
3.6474300341e-10
1.28747154728e-10
2.82181245662e-10
8.25617607161e-11
2.27605205423e-10
5.45760428075e-11
1.90065843097e-10
3.7539364741e-11
1.63215257232e-10
2.68505882301e-11
1.43336450267e-10
1.98788093285e-11
1.28191892078e-10
1.51445605336e-11
1.16386906551e-10
1.18049878721e-11
1.07019677802e-10
9.36723106553e-12
9.94859844465e-11
7.53369566547e-12
9.33675513398e-11
6.11843537635e-12
8.83663118035e-11
5.00124179111e-12
8.42644756436e-11
4.10183835974e-12
8.0899505983e-11
3.36497183525e-12
7.81479627219e-11
2.75154536455e-12
7.59147761062e-11
2.23318868278e-12
7.4125940712e-11
1.7888373738e-12
7.27234235317e-11
1.40251911199e-12
7.16615409744e-11
1.0618843855e-12
7.09043343597e-11
7.57208384068e-13
7.04236379154e-11
4.80698095885e-13
7.01976376911e-11
2.26001808925e-13
7.02097835769e-11
-1.21444291076e-14
7.0447960325e-11
-2.38175360951e-13
7.09038485322e-11
-4.5588695024e-13
7.15724294013e-11
-6.68579674764e-13
7.24515972825e-11
-8.79166806897e-13
7.35418523337e-11
-1.09025401783e-12
7.48460497546e-11
-1.30419647993e-12
7.63691874292e-11
-1.52313673274e-12
7.81182135481e-11
-1.74902521877e-12
8.01018382128e-11
-1.9836236966e-12
8.2330330355e-11
-2.22849113675e-12
8.48152820283e-11
-2.48495050211e-12
8.75693180718e-11
-2.75403472274e-12
9.06057292724e-11
-3.0364095815e-12
9.39380032502e-11
-3.3322720606e-12
9.75792290663e-11
-3.64122343074e-12
1.01541351038e-10
-3.96211910319e-12
1.05834255045e-10
-4.29290046458e-12
1.10464678887e-10
-4.63041959976e-12
1.1543495796e-10
-4.97027392382e-12
1.20741639526e-10
-5.30667547719e-12
1.26374032248e-10
-5.63238547948e-12
1.32312788899e-10
-5.93874822862e-12
1.38528653223e-10
-6.21585451472e-12
1.4498151719e-10
-6.45285277249e-12
1.51619933258e-10
-6.6384033153e-12
1.58381189698e-10
-6.76124220333e-12
1.65191997392e-10
-6.810791895e-12
1.71969753805e-10
-6.77773928188e-12
1.78624278742e-10
-6.65450658039e-12
1.85059871395e-10
-6.43557355289e-12
1.91177550283e-10
-6.11765941451e-12
1.9687738984e-10
-5.69982047443e-12
2.02060947757e-10
-5.18353981145e-12
2.06633841685e-10
-4.57287770196e-12
2.10508584958e-10
-3.87472949768e-12
2.13607797028e-10
-3.09920150463e-12
2.1586781597e-10
-2.26001186892e-12
2.17242459546e-10
-1.37464039721e-12
2.17706287907e-10
-4.63828984601e-13
2.17256475726e-10
4.4980764835e-13
2.15912605475e-10
1.3438621014e-12
2.13714306255e-10
2.19828745224e-12
2.10717323549e-10
2.99696768574e-12
2.0698903231e-10
3.72827308392e-12
2.02604377623e-10
4.38463394318e-12
1.97642808954e-10
4.9615456781e-12
1.9218628408e-10
5.45650036841e-12
1.86318080873e-10
5.86817765168e-12
1.80122034352e-10
6.19602066684e-12
1.73681823945e-10
6.44018467395e-12
1.67080032061e-10
6.60176690672e-12
1.60396839597e-10
6.68316852094e-12
1.53708399081e-10
6.68841806178e-12
1.47085062075e-10
6.62331614168e-12
1.40589708836e-10
6.49533422482e-12
1.34276412267e-10
6.3132793333e-12
1.28189601323e-10
6.08679558124e-12
1.2236378921e-10
5.82579841952e-12
1.1682384292e-10
5.53993425296e-12
1.11585698403e-10
5.23813386037e-12
1.06657391897e-10
4.92829716874e-12
1.02040267187e-10
4.61711640113e-12
9.77302367292e-11
4.3100231139e-12
9.37189985372e-11
4.01123154049e-12
8.99951449901e-11
3.72384755139e-12
8.65451251693e-11
3.45001424063e-12
8.33540485938e-11
3.19107141071e-12
8.04063314543e-11
2.94771218572e-12
7.76861999946e-11
2.72012675188e-12
7.51780678488e-11
2.50812751122e-12
7.28668092096e-11
2.31125414236e-12
7.07379459726e-11
2.12885872998e-12
6.87777684388e-11
1.96017310316e-12
6.69734034619e-11
1.80436049294e-12
6.53128445987e-11
1.66055442752e-12
6.3784953082e-11
1.52788701184e-12
6.23794394895e-11
1.40550912999e-12
6.1086830819e-11
1.29260414033e-12
5.98984293682e-11
1.18839697038e-12
5.88062652541e-11
1.09215957821e-12
5.78030466271e-11
1.00321415599e-12
5.68821075148e-11
9.2093460405e-13
5.60373557817e-11
8.44747309639e-13
5.52632198252e-11
7.74131517928e-13
5.45545953096e-11
7.08620185194e-13
5.39067894271e-11
6.47801562868e-13
5.33154627688e-11
5.91322474091e-13
5.277656488e-11
5.38893745629e-13
5.2286261753e-11
4.90299151504e-13
5.18408488589e-11
4.45408996319e-13
5.14366444043e-11
4.04200764311e-13
5.10698511407e-11
3.66789697047e-13
5.07363732688e-11
3.33474565058e-13
5.04315638923e-11
3.04806255444e-13
5.01498685503e-11
2.81692553121e-13
4.98843053176e-11
2.65560714383e-13
4.96256882802e-11
2.58614940771e-13
4.93614385952e-11
2.64247933845e-13
4.90737486283e-11
2.87688651053e-13
4.87368183556e-11
3.3692918648e-13
4.83133443191e-11
4.2347313608e-13
4.77534223291e-11
5.59921330524e-13
7.18504923811e-13
9.53371629423e-10
2.28741716215e-10
8.59583994717e-10
2.93184150809e-10
7.45063563584e-10
2.43267591713e-10
6.41966048684e-10
1.85659280354e-10
5.5691750426e-10
1.39624591451e-10
4.88709636076e-10
1.05747236968e-10
4.34313242293e-10
8.1246985996e-11
3.90768940494e-10
6.34231150874e-11
3.55657753756e-10
5.02557511975e-11
3.27119089836e-10
4.03436556889e-11
3.0375083129e-10
3.27354934604e-11
2.84499422558e-10
2.67851082044e-11
2.68568997868e-10
2.2048863805e-11
2.55352923952e-10
1.82173193833e-11
2.44384053689e-10
1.50707122057e-11
2.35299007889e-10
1.24500211319e-11
2.27812534483e-10
1.02380221467e-11
2.21698993135e-10
8.34673329398e-12
2.16778863279e-10
6.70897034205e-12
2.12908809271e-10
5.27257609117e-12
2.09974284009e-10
3.9964124379e-12
2.078839632e-10
2.84753181532e-12
2.06565513625e-10
1.79915008403e-12
2.05962345142e-10
8.29172515667e-13
2.06031094763e-10
-8.08920528593e-14
2.06739660754e-10
-9.4673955153e-13
2.08065650436e-10
-1.78187506267e-12
2.09995143908e-10
-2.59807176218e-12
2.12521694937e-10
-3.40571665631e-12
2.15645506521e-10
-4.21406456574e-12
2.1937272805e-10
-5.03141711746e-12
2.23714829025e-10
-5.86523687469e-12
2.28688006109e-10
-6.72220150703e-12
2.34312582747e-10
-7.60819946023e-12
2.40612358075e-10
-8.52826546214e-12
2.47613861322e-10
-9.486452467e-12
2.55345463528e-10
-1.04856352833e-11
2.63836297794e-10
-1.15272416488e-11
2.73114936866e-10
-1.26109082613e-11
2.8320778133e-10
-1.37340641192e-11
2.94137118102e-10
-1.48914510401e-11
3.05918827067e-10
-1.60746032664e-11
3.18559738723e-10
-1.7271323578e-11
3.32054687029e-10
-1.84652127433e-11
3.4638335177e-10
-1.96353287245e-11
3.61507048532e-10
-2.07560684424e-11
3.77365686469e-10
-2.17973698837e-11
3.9387517008e-10
-2.27253191061e-11
4.1092554631e-10
-2.35032071553e-11
4.28380184116e-10
-2.40930163235e-11
4.46076200569e-10
-2.44572310247e-11
4.63826227723e-10
-2.45607887374e-11
4.81421460853e-10
-2.43729399085e-11
4.98635791567e-10
-2.38688031923e-11
5.15230745339e-10
-2.30304926073e-11
5.30960953903e-10
-2.18478337145e-11
5.45579980947e-10
-2.03188150892e-11
5.58846448545e-10
-1.84499781103e-11
5.70530513336e-10
-1.6256917706e-11
5.80420800534e-10
-1.37649974595e-11
5.88331887213e-10
-1.10102754015e-11
5.94112251054e-10
-8.04036979253e-12
5.97652125706e-10
-4.91451625211e-12
5.9889004865e-10
-1.70176010932e-12
5.97816513498e-10
1.52332777476e-12
5.94473527886e-10
4.68682621817e-12
5.88949967173e-10
7.72182050112e-12
5.81373798611e-10
1.05731030075e-11
5.7190300799e-10
1.319902551e-11
5.60717027498e-10
1.55705722763e-11
5.48009761355e-10
1.76687666868e-11
5.33984448473e-10
1.94817663693e-11
5.18849995109e-10
2.10025834422e-11
5.02818157846e-10
2.22278107924e-11
4.86100936877e-10
2.31573597825e-11
4.68907681278e-10
2.37949787614e-11
4.51441661444e-10
2.41491472421e-11
4.3389617436e-10
2.42338671544e-11
4.16450501013e-10
2.40689547881e-11
3.9926616755e-10
2.36796364355e-11
3.82483944877e-10
2.30954740774e-11
3.66221901807e-10
2.23488139527e-11
3.50574648979e-10
2.14730294599e-11
3.35613739238e-10
2.05008248848e-11
3.21389051143e-10
1.94628051241e-11
3.07930904611e-10
1.83864288751e-11
2.95252630262e-10
1.72953775367e-11
2.83353335857e-10
1.62093056733e-11
2.72220656894e-10
1.51438996868e-11
2.61833338416e-10
1.41111560607e-11
2.52163549055e-10
1.31197942093e-11
2.43178879139e-10
1.21757324014e-11
2.34844009127e-10
1.1282573533e-11
2.27122062731e-10
1.04420646983e-11
2.19975672069e-10
9.65450978787e-12
2.13367792657e-10
8.91912523357e-12
2.07262305752e-10
8.23433727172e-12
2.01624446897e-10
7.59802358874e-12
1.96421093588e-10
7.00770534635e-12
1.91620943221e-10
6.46069631074e-12
1.87194605252e-10
5.9542164099e-12
1.83114629608e-10
5.48547618741e-12
1.79355486744e-10
5.0517383509e-12
1.75893513718e-10
4.65036135932e-12
1.72706834991e-10
4.27882963763e-12
1.69775266688e-10
3.9347738467e-12
1.67080208219e-10
3.61598447695e-12
1.64604525917e-10
3.32042111716e-12
1.6233242915e-10
3.04621985493e-12
1.6024934044e-10
2.79170062159e-12
1.58341757172e-10
2.55537667928e-12
1.56597103609e-10
2.33596810225e-12
1.5500356779e-10
2.1324218185e-12
1.53549918665e-10
1.94394081925e-12
1.52225294143e-10
1.77002633206e-12
1.51018950703e-10
1.61053739874e-12
1.49919959718e-10
1.46577425276e-12
1.48916834885e-10
1.33659347078e-12
1.47997069945e-10
1.22456577879e-12
1.47146568404e-10
1.13218932785e-12
1.46348953187e-10
1.06317182189e-12
1.45584779473e-10
1.02278531183e-12
1.44830767209e-10
1.01825757042e-12
1.4405942961e-10
1.05902437206e-12
1.43240152285e-10
1.15620527326e-12
1.42344455052e-10
1.31916953949e-12
1.4136354252e-10
1.54083334279e-12
1.74429336979e-12
9.76215821738e-10
1.90025898092e-10
9.62997234683e-10
3.06402742322e-10
9.0617468254e-10
3.00090147406e-10
8.33917686109e-10
2.57916279902e-10
7.61220018176e-10
2.12322262227e-10
6.94489126736e-10
1.72478131163e-10
6.35791063769e-10
1.3994505168e-10
5.8522584569e-10
1.13988335878e-10
5.42106778703e-10
9.33748208579e-11
5.05509819469e-10
7.69406175788e-11
4.74512121135e-10
6.37331943904e-11
4.48283696931e-10
5.30135349736e-11
4.26112707004e-10
4.42198562155e-11
4.07402746073e-10
3.69272827497e-11
3.91659875385e-10
3.08135852239e-11
3.78477256721e-10
2.56326420587e-11
3.67520607972e-10
2.11946730265e-11
3.58515587989e-10
1.73517553173e-11
3.51237298975e-10
1.39872612358e-11
3.45501732659e-10
1.10081441732e-11
3.41158871095e-10
8.3392755771e-12
3.38087146578e-10
5.91925776936e-12
3.36188995582e-10
3.69730230069e-12
3.35387285957e-10
1.63088320363e-12
3.35622435864e-10
-3.16041132042e-13
3.36850078518e-10
-2.17438154348e-12
3.39039153761e-10
-3.9709498826e-12
3.42170336146e-10
-5.72925387739e-12
3.46234717179e-10
-7.47009763894e-12
3.51232674702e-10
-9.21202215083e-12
3.57172868296e-10
-1.09716109355e-11
3.6407130632e-10
-1.27636751575e-11
3.71950429931e-10
-1.46013254385e-11
3.80838161451e-10
-1.64959312042e-11
3.90766860487e-10
-1.84569646302e-11
4.01772130859e-10
-2.04917226827e-11
4.13891416354e-10
-2.26049203085e-11
4.27162324234e-10
-2.47981485141e-11
4.41620614133e-10
-2.70691965408e-11
4.57297798521e-10
-2.9411246012e-11
4.74218311819e-10
-3.18119608772e-11
4.92396231596e-10
-3.42525183096e-11
5.11831569569e-10
-3.67066554301e-11
5.32506204824e-10
-3.91398401578e-11
5.54379595845e-10
-4.15087100625e-11
5.77384488644e-10
-4.37609493771e-11
6.01422915169e-10
-4.58357822608e-11
6.2636284532e-10
-4.76652325184e-11
6.52035885435e-10
-4.91762279163e-11
6.78236397018e-10
-5.0293505738e-11
7.04722315658e-10
-5.09431248447e-11
7.31217796965e-10
-5.10562426157e-11
7.57417617745e-10
-5.05727311623e-11
7.82993080479e-10
-4.94442347457e-11
8.07599053677e-10
-4.7636433958e-11
8.30881787292e-10
-4.51305357154e-11
8.52487248766e-10
-4.19242465778e-11
8.72069880977e-10
-3.80325831011e-11
8.89301790664e-10
-3.34888043782e-11
9.03882428787e-10
-2.83456176924e-11
9.15548820019e-10
-2.26766548889e-11
9.24086246717e-10
-1.65777912304e-11
9.29338735719e-10
-1.01670068891e-11
9.31217814599e-10
-3.58084729841e-12
9.29707447861e-10
3.0336795479e-12
9.24863552421e-10
9.5307005485e-12
9.16807933751e-10
1.57774121483e-11
9.05718068891e-10
2.16629356692e-11
8.91815137357e-10
2.7101920215e-11
8.75352624732e-10
3.20330445324e-11
8.56606868968e-10
3.64144794176e-11
8.35869808925e-10
4.02187819841e-11
8.13443474803e-10
4.34288726426e-11
7.89635497351e-10
4.60357439573e-11
7.64754893136e-10
4.80379210192e-11
7.39107536147e-10
4.94422949152e-11
7.12991026973e-10
5.02656180993e-11
6.86689058715e-10
5.05358001191e-11
6.60465696104e-10
5.02922851973e-11
6.34560144371e-10
4.95851592606e-11
6.09182555592e-10
4.84730370449e-11
5.84511265589e-10
4.70200812144e-11
5.60691629559e-10
4.52926454493e-11
5.37836409155e-10
4.33560277914e-11
5.1602748862e-10
4.12717102618e-11
4.95318598653e-10
3.90953053534e-11
4.75738689788e-10
3.68752743812e-11
4.57295621741e-10
3.46523630067e-11
4.39979887239e-10
3.24596243925e-11
4.23768162652e-10
3.0322871666e-11
4.0862654479e-10
2.82614035798e-11
3.94513398106e-10
2.62888710479e-11
3.81381781545e-10
2.44141822502e-11
3.6918146238e-10
2.26423762347e-11
3.57860543519e-10
2.09754210288e-11
3.47366746831e-10
1.94129143793e-11
3.3764839712e-10
1.79526793486e-11
3.28655155197e-10
1.659125789e-11
3.20338542427e-10
1.53243103631e-11
3.1265229812e-10
1.4146932859e-11
3.05552602503e-10
1.30539041375e-11
2.98998196109e-10
1.20398746983e-11
2.92950417918e-10
1.10995085501e-11
2.87373183351e-10
1.02275879715e-11
2.82232915733e-10
9.41908922762e-12
2.77498444681e-10
8.66923694595e-12
2.73140878416e-10
7.97354275709e-12
2.69133457769e-10
7.32783390084e-12
2.65451393962e-10
6.72827581402e-12
2.62071693665e-10
6.17139324143e-12
2.58972969569e-10
5.65409316743e-12
2.56135236473e-10
5.17369381911e-12
2.53539687866e-10
4.72796317901e-12
2.51168449934e-10
4.31517180189e-12
2.49004305244e-10
3.93416428333e-12
2.47030380978e-10
3.58445530904e-12
2.45229793511e-10
3.26635567739e-12
2.43585247047e-10
2.98113439277e-12
2.4207858799e-10
2.73121974437e-12
2.40690336614e-10
2.52043626612e-12
2.39399249329e-10
2.35425527451e-12
2.38182038569e-10
2.23999300487e-12
2.37013511644e-10
2.18678202888e-12
2.35867653026e-10
2.20488114801e-12
2.34720619142e-10
2.30323796347e-12
2.33557305148e-10
2.48248302274e-12
2.32381972986e-10
2.71616548386e-12
2.90568973622e-12
9.71779780055e-10
1.55746120808e-10
9.8675010169e-10
2.91432423556e-10
9.68356498687e-10
3.18483752913e-10
9.28219114707e-10
2.98053665604e-10
8.78191660136e-10
2.62349718111e-10
8.25793968504e-10
2.24875823979e-10
7.75173232065e-10
1.90565789268e-10
7.28360075601e-10
1.6080149348e-10
6.86166290611e-10
1.35568606961e-10
6.48741749172e-10
1.14365160101e-10
6.15900233314e-10
9.65747112847e-11
5.87303157524e-10
8.16106117517e-11
5.62559750801e-10
6.89632638609e-11
5.41279428472e-10
5.82076059337e-11
5.23097375968e-10
4.89956384954e-11
5.07685454462e-10
4.10445642445e-11
4.94755300013e-10
3.41248280428e-11
4.84057463842e-10
2.80495919419e-11
4.75378714237e-10
2.26660111536e-11
4.68538644181e-10
1.78482143978e-11
4.63386180157e-10
1.3491739598e-11
4.59796283924e-10
9.50915382413e-12
4.57666972017e-10
5.8266138249e-12
4.56916689264e-10
2.38116536893e-12
4.57482025957e-10
-8.81378644755e-13
4.5931574312e-10
-4.00809975373e-12
4.62385064841e-10
-7.0402728987e-12
4.66670195525e-10
-1.00143860895e-11
4.72163009442e-10
-1.29629133281e-11
4.78865865353e-10
-1.59148800453e-11
4.86790497564e-10
-1.88962453383e-11
4.9595693436e-10
-2.19301142996e-11
5.0639239182e-10
-2.50367853737e-11
5.18130088976e-10
-2.82336308859e-11
5.3120792579e-10
-3.1534803964e-11
5.45666962601e-10
-3.49507618972e-11
5.61549635708e-10
-3.84875956146e-11
5.78897643363e-10
-4.21461580127e-11
5.97749437641e-10
-4.59209921822e-11
6.18137266374e-10
-4.97990754383e-11
6.40083724345e-10
-5.37584187083e-11
6.63597801393e-10
-5.77665941568e-11
6.88670455906e-10
-6.17793074855e-11
7.15269801826e-10
-6.57391821084e-11
7.43336071681e-10
-6.9574974223e-11
7.72776607847e-10
-7.32014778564e-11
8.03461225243e-10
-7.65203897732e-11
8.35218368657e-10
-7.94223636106e-11
8.67832528718e-10
-8.17903730673e-11
9.01043361286e-10
-8.35043206558e-11
9.34546851459e-10
-8.44465946257e-11
9.67998680149e-10
-8.45080482314e-11
1.0010197116e-09
-8.35937371473e-11
1.03320329015e-09
-8.16277858816e-11
1.06412388611e-09
-7.85570013e-11
1.09334663118e-09
-7.43532518669e-11
1.12043742432e-09
-6.90150116896e-11
1.14497348212e-09
-6.25686150048e-11
1.16655432413e-09
-5.50696239432e-11
1.18481322094e-09
-4.66044966717e-11
1.19942918793e-09
-3.72926096323e-11
1.21013957643e-09
-2.72881737096e-11
1.21675270947e-09
-1.67801405237e-11
1.21915873855e-09
-5.98688362901e-12
1.21733596919e-09
4.85643515156e-12
1.21135046567e-09
1.55161841469e-11
1.20134868026e-09
2.57791719333e-11
1.18754497303e-09
3.54666121799e-11
1.17020713882e-09
4.44397193988e-11
1.14964285922e-09
5.25972857872e-11
1.12618863899e-09
5.98686590804e-11
1.10020132477e-09
6.62060545408e-11
1.07205153307e-09
7.15786225818e-11
1.04211813933e-09
7.59690967938e-11
1.0107830036e-09
7.93730173812e-11
9.78425261564e-10
8.1799999747e-11
9.45414860508e-10
8.32759845187e-11
9.12105492922e-10
8.38451359611e-11
8.78827466259e-10
8.35702831262e-11
8.45881218896e-10
8.25313809626e-11
8.13532137366e-10
8.08220958688e-11
7.82007125943e-10
7.85450727495e-11
7.51493108894e-10
7.5806645156e-11
7.22137389447e-10
7.27117321945e-11
6.94049591832e-10
6.93594947924e-11
6.67304801424e-10
6.58400843618e-11
6.41947484038e-10
6.223258172e-11
6.17995795883e-10
5.8604042223e-11
5.95445960272e-10
5.50094518931e-11
5.74276469599e-10
5.14923548694e-11
5.54451949407e-10
4.80859167274e-11
5.35926591797e-10
4.48142219159e-11
5.18647118382e-10
4.16936490726e-11
5.02555273663e-10
3.87342144448e-11
4.87589874347e-10
3.59408138181e-11
4.73688456809e-10
3.3314325352e-11
4.60788570856e-10
3.08525586336e-11
4.48828771055e-10
2.85510509299e-11
4.37749353628e-10
2.64037209005e-11
4.2749288423e-10
2.44033952685e-11
4.18004555476e-10
2.25422257817e-11
4.09232408925e-10
2.0812014061e-11
4.01127449499e-10
1.92044606967e-11
3.93643676632e-10
1.77113535148e-11
3.86738050555e-10
1.6324707929e-11
3.80370409433e-10
1.50368706907e-11
3.74503348261e-10
1.38405965452e-11
3.69102068715e-10
1.27291061079e-11
3.64134205249e-10
1.16961319828e-11
3.59569631795e-10
1.07359594945e-11
3.55380250209e-10
9.84346764832e-12
3.515397613e-10
9.01417577646e-12
3.48023416696e-10
8.24430098976e-12
3.44807750252e-10
7.53083167445e-12
3.4187028622e-10
6.871621977e-12
3.39189223574e-10
6.26551192565e-12
3.3674309728e-10
5.71247627427e-12
3.34510424449e-10
5.21380195012e-12
3.32469353059e-10
4.77228633039e-12
3.30597352113e-10
4.39243299279e-12
3.28871014856e-10
4.08058895838e-12
3.27266104025e-10
3.84490100595e-12
3.25758053501e-10
3.69483044748e-12
3.24323257928e-10
3.6396752706e-12
3.22941572191e-10
3.68492286945e-12
3.21600111318e-10
3.82394369401e-12
3.20295982965e-10
4.0202941014e-12
4.17667427509e-12
9.63997466229e-10
1.29248655717e-10
9.87897251854e-10
2.67532639017e-10
9.90218722791e-10
3.16162282596e-10
9.73041815357e-10
3.15230573438e-10
9.43304636966e-10
2.92086896686e-10
9.07044677518e-10
2.61135783538e-10
8.68448324672e-10
2.29162142209e-10
8.30155617967e-10
1.99094200278e-10
7.93717267396e-10
1.72006957604e-10
7.59968492232e-10
1.48113935311e-10
7.29293705567e-10
1.27249497949e-10
7.01803306553e-10
1.09101010717e-10
6.77448145192e-10
9.33184251055e-11
6.5609207667e-10
7.95636742722e-11
6.37557100307e-10
6.75306145865e-11
6.21650867507e-10
5.69507966834e-11
6.08182991696e-10
4.75927033789e-11
5.96974325309e-10
3.92582577389e-11
5.87861872756e-10
3.17784629736e-11
5.80701037037e-10
2.50090492372e-11
5.7536627194e-10
1.88265036364e-11
5.71750811936e-10
1.31246125899e-11
5.69765896192e-10
7.81152811448e-12
5.69339741106e-10
2.80731878569e-12
5.70416412108e-10
-1.95805156396e-12
5.72954673411e-10
-6.54636321723e-12
5.7692686657e-10
-1.10124684897e-11
5.82317832655e-10
-1.54053548647e-11
5.89123868864e-10
-1.97689525021e-11
5.97351704277e-10
-2.41427186697e-11
6.07017468439e-10
-2.8562012959e-11
6.18145618967e-10
-3.30582684866e-11
6.30767786802e-10
-3.76589570464e-11
6.4492149184e-10
-4.23873398666e-11
6.60648675011e-10
-4.7261991131e-11
6.77993987996e-10
-5.22960788247e-11
6.97002776907e-10
-5.74963883311e-11
7.17718694807e-10
-6.28620794335e-11
7.4018087896e-10
-6.83831794504e-11
7.64420636885e-10
-7.40388358834e-11
7.90457600617e-10
-7.97953842036e-11
8.18295337207e-10
-8.56043315276e-11
8.47916446003e-10
-9.14004158824e-11
8.7927723559e-10
-9.70999698605e-11
9.12302153762e-10
-1.02599888906e-10
9.46878242762e-10
-1.07777561444e-10
9.82849997279e-10
-1.12492136738e-10
1.02001509934e-09
-1.16587455719e-10
1.05812156197e-09
-1.19896823178e-10
1.09686680301e-09
-1.22249546409e-10
1.13589906019e-09
-1.23478833694e-10
1.17482134526e-09
-1.23430312372e-10
1.21319784354e-09
-1.21970211864e-10
1.25056237183e-09
-1.18992288356e-10
1.28642831271e-09
-1.14422914753e-10
1.32029944151e-09
-1.08224352512e-10
1.35168126198e-09
-1.00396804438e-10
1.38009273326e-09
-9.09800602872e-11
1.4050783992e-09
-8.00552670227e-11
1.42622092333e-09
-6.77470023449e-11
1.44315417546e-09
-5.42258488767e-11
1.45557725904e-09
-3.97112507476e-11
1.46326926457e-09
-2.44721463624e-11
1.46610259646e-09
-8.82022277248e-12
1.46405109015e-09
6.90792742331e-12
1.45718979856e-09
2.2377455368e-11
1.44568603953e-09
3.72829047821e-11
1.42978423041e-09
5.13683901064e-11
1.4097886778e-09
6.44352366703e-11
1.38604807742e-09
7.63378478196e-11
1.35894343026e-09
8.69732659979e-11
1.32887907362e-09
9.62703702246e-11
1.29627576521e-09
1.04181890273e-10
1.26156480826e-09
1.10680014151e-10
1.22518229271e-09
1.15755495079e-10
1.18756265784e-09
1.19419599058e-10
1.14913120015e-09
1.2170740927e-10
1.1102957585e-09
1.22680547559e-10
1.07143828782e-09
1.2242772672e-10
1.0329072112e-09
1.21062433508e-10
9.95011335255e-10
1.18717950614e-10
9.58015841199e-10
1.15540548333e-10
9.22140531616e-10
1.11681938725e-10
8.87560211874e-10
1.07292038131e-10
8.54406864879e-10
1.02512829862e-10
8.22773162367e-10
9.74737765519e-11
7.92716832097e-10
9.22889029497e-11
7.64265445656e-10
8.70554206617e-11
7.37421272328e-10
8.18536179824e-11
7.12165938894e-10
7.67476816434e-11
6.88464722681e-10
7.17871266483e-11
6.66270380399e-10
6.70085581524e-11
6.45526471587e-10
6.24375519386e-11
6.2617017716e-10
5.80905029611e-11
6.08134639404e-10
5.39763456021e-11
5.91350866414e-10
5.00980922894e-11
5.75749250738e-10
4.64541681189e-11
5.61260754929e-10
4.3039540422e-11
5.47817814203e-10
3.98466551502e-11
5.35355003484e-10
3.68661993843e-11
5.23809510264e-10
3.40877122543e-11
5.1312145021e-10
3.15000672656e-11
5.0323405618e-10
2.90918477667e-11
4.94093767104e-10
2.68516355671e-11
4.8565023768e-10
2.47682302611e-11
4.77856286549e-10
2.28308147115e-11
4.70667796134e-10
2.10290798283e-11
4.64043575044e-10
1.93533200963e-11
4.57945190395e-10
1.77945095575e-11
4.52336776013e-10
1.63443668854e-11
4.47184819719e-10
1.49954170332e-11
4.42457932348e-10
1.37410563782e-11
4.38126599222e-10
1.25756274932e-11
4.34162915245e-10
1.14945092372e-11
4.30540304244e-10
1.04942267847e-11
4.27233225474e-10
9.57258479715e-12
4.24216872472e-10
8.72882369898e-12
4.21466875955e-10
7.96379329933e-12
4.18959030947e-10
7.28012663007e-12
4.16669083805e-10
6.68237600215e-12
4.14572635587e-10
6.17703369002e-12
4.12645248174e-10
5.77228570014e-12
4.1086287012e-10
5.47720657939e-12
4.0920270742e-10
5.29983684033e-12
4.07644539338e-10
5.2430905097e-12
4.06171847848e-10
5.29663526211e-12
4.04769839577e-10
5.42230277498e-12
5.53341828087e-12
9.57636096713e-10
1.09112560075e-10
9.82858700749e-10
2.42310035742e-10
9.95689635725e-10
3.03331348222e-10
9.93374211188e-10
3.17545997815e-10
9.79051058901e-10
3.06410048395e-10
9.56815740085e-10
2.83371101654e-10
9.30114724181e-10
2.55863157397e-10
9.01477039487e-10
2.27731884258e-10
8.72637604297e-10
2.00846392068e-10
8.44730321447e-10
1.76021217409e-10
8.18460130345e-10
1.53519688254e-10
7.94235988403e-10
1.3332515181e-10
7.72267861022e-10
1.15286551567e-10
7.52635399985e-10
9.91961343145e-11
7.35335703001e-10
8.48303104833e-11
7.20316086323e-10
7.1970412175e-11
7.07496307639e-10
6.04124807572e-11
6.96783447424e-10
4.99711165215e-11
6.88081724175e-10
4.04801846405e-11
6.81298838612e-10
3.1791933058e-11
6.76349955553e-10
2.37753847663e-11
6.73160089521e-10
1.63144764959e-11
6.71665419855e-10
9.30619542824e-12
6.71813893986e-10
2.65884206638e-12
6.73565361266e-10
-3.70952169537e-12
6.76891389066e-10
-9.8723941366e-12
6.81774883033e-10
-1.58959658667e-11
6.8820956571e-10
-2.18400412388e-11
6.96199345265e-10
-2.77587360512e-11
7.05757588745e-10
-3.37009664254e-11
7.16906296492e-10
-3.97107252549e-11
7.29675161222e-10
-4.58271380033e-11
7.44100483884e-10
-5.20842847017e-11
7.60223909034e-10
-5.85107701516e-11
7.78090933628e-10
-6.51290209431e-11
7.97749135989e-10
-7.19542863857e-11
8.19246065372e-10
-7.89933228028e-11
8.42626729235e-10
-8.62427481328e-11
8.67930614842e-10
-9.36870695082e-11
8.95188187815e-10
-1.01296412739e-10
9.24416823748e-10
-1.09024023279e-10
9.55616155345e-10
-1.16803665305e-10
9.88762859079e-10
-1.24547120627e-10
1.02380496823e-09
-1.32142078607e-10
1.06065588438e-09
-1.39450802999e-10
1.09918836817e-09
-1.46310041259e-10
1.13922891296e-09
-1.52532675415e-10
1.180553025e-09
-1.57911559225e-10
1.22288201693e-09
-1.62225803965e-10
1.2658819288e-09
-1.65249444276e-10
1.30916507764e-09
-1.66761965564e-10
1.35229448938e-09
-1.66559704062e-10
1.39479110735e-09
-1.644668068e-10
1.43614329261e-09
-1.60344447841e-10
1.47581786644e-09
-1.54097460628e-10
1.51327194237e-09
-1.45678399113e-10
1.54796509069e-09
-1.35089923234e-10
1.579371781e-09
-1.22386722259e-10
1.60699419137e-09
-1.07677651849e-10
1.63037533371e-09
-9.11281234927e-11
1.64911267462e-09
-7.29631744099e-11
1.66287322468e-09
-5.34717923857e-11
1.67141063576e-09
-3.30095567154e-11
1.67458176946e-09
-1.19913637408e-11
1.67235730256e-09
9.13237923706e-12
1.6648217802e-09
2.99129553636e-11
1.65216250978e-09
4.99421464174e-11
1.63465082955e-09
6.88800361719e-11
1.61262150062e-09
8.646452731e-11
1.5864552176e-09
1.02504089807e-10
1.55656603225e-09
1.16862408948e-10
1.52339259975e-09
1.2944376024e-10
1.4873915726e-09
1.40182875846e-10
1.44903197076e-09
1.49039576118e-10
1.40878949545e-09
1.55997932747e-10
1.36713978383e-09
1.61069275688e-10
1.32455012081e-09
1.6429704019e-10
1.28146995459e-09
1.65760684719e-10
1.23832117866e-09
1.65576476664e-10
1.19548931676e-09
1.63894272463e-10
1.15331656201e-09
1.60890685296e-10
1.11209725198e-09
1.56759840992e-10
1.07207594828e-09
1.5170322749e-10
1.03344793288e-09
1.45920040757e-10
9.96361689167e-10
1.3959906265e-10
9.60922821609e-10
1.3291263474e-10
9.27198863219e-10
1.26012853218e-10
8.95224489139e-10
1.19029787613e-10
8.65006757969e-10
1.12071342755e-10
8.36530112461e-10
1.05224321289e-10
8.09760968572e-10
9.85562650115e-11
7.84651801006e-10
9.21177203962e-11
7.61144691029e-10
8.59446566619e-11
7.3917434283e-10
8.00608459003e-11
7.18670599536e-10
7.44800835465e-11
6.9956050485e-10
6.92081815049e-11
6.81769962336e-10
6.4244704999e-11
6.65225046169e-10
5.95844507924e-11
6.49853014677e-10
5.52186806648e-11
6.35583074481e-10
5.11361334425e-11
6.22346937604e-10
4.73238428302e-11
6.10079209055e-10
4.37677893832e-11
5.9871763664e-10
4.04534136229e-11
5.88203250258e-10
3.73660153016e-11
5.78480412873e-10
3.44910609168e-11
5.69496801797e-10
3.18144190145e-11
5.6120333484e-10
2.93225399791e-11
5.53554053269e-10
2.70025948679e-11
5.46505970423e-10
2.4842585621e-11
5.40018893085e-10
2.28314375007e-11
5.34055220451e-10
2.09590830168e-11
5.28579724652e-10
1.92165456444e-11
5.23559315382e-10
1.75960303648e-11
5.1896279129e-10
1.60910271185e-11
5.14760580577e-10
1.46964314984e-11
5.10924474895e-10
1.34086847524e-11
5.07427362432e-10
1.22259307439e-11
5.04242970402e-10
1.11481802982e-11
5.01345632397e-10
1.01774600499e-11
4.98710104423e-10
9.31789994081e-12
4.96311462309e-10
8.57567240536e-12
4.94125121119e-10
7.95862424528e-12
4.92127010644e-10
7.47531522194e-12
4.90293885538e-10
7.13296095401e-12
4.88603536443e-10
6.93343938491e-12
4.87034023021e-10
6.86614897771e-12
4.85559577112e-10
6.89674920486e-12
6.95364749127e-12
9.5304218061e-10
9.35703794945e-11
9.76876664862e-10
2.18475551258e-10
9.94614497443e-10
2.85593515029e-10
1.00152351734e-09
3.10636977121e-10
9.98220011663e-10
3.0971355306e-10
9.871041035e-10
2.94487008742e-10
9.70710294357e-10
2.72256965473e-10
9.51164847943e-10
2.47277329619e-10
9.3009393771e-10
2.21917301245e-10
9.08680629489e-10
1.97434524553e-10
8.87755703557e-10
1.7444461307e-10
8.67883700865e-10
1.53197153333e-10
8.49433821959e-10
1.33736429235e-10
8.32635038066e-10
1.1599491689e-10
8.1761768317e-10
9.98476639703e-11
8.0444430243e-10
8.51437914018e-11
7.93132262105e-10
7.17245194495e-11
7.83670165461e-10
5.94332113989e-11
7.76029668297e-10
4.81206798862e-11
7.70173906237e-10
3.76476930314e-11
7.66063441891e-10
2.78858468378e-11
7.63660405356e-10
1.87175105464e-11
7.62931323355e-10
1.00352747158e-11
7.63848998156e-10
1.74116430225e-12
7.66393697308e-10
-6.25422407919e-12
7.70553832534e-10
-1.40325328812e-11
7.76326283625e-10
-2.16684207732e-11
7.83716436443e-10
-2.92301981793e-11
7.92737995715e-10
-3.6780299755e-11
8.03412606553e-10
-4.43755819985e-11
8.15769298448e-10
-5.20674221727e-11
8.29843749468e-10
-5.99015943073e-11
8.45677354779e-10
-6.79178955173e-11
8.63316071936e-10
-7.61494929809e-11
8.82809004873e-10
-8.46219596463e-11
9.04206679306e-10
-9.33519665923e-11
9.27558954324e-10
-1.02345603491e-10
9.52912509083e-10
-1.11596308332e-10
9.8030784073e-10
-1.21082406214e-10
1.00977571203e-09
-1.30764288553e-10
1.04133299725e-09
-1.40581312263e-10
1.07497789666e-09
-1.5044856753e-10
1.1106845288e-09
-1.60253754421e-10
1.14839697085e-09
-1.69854520894e-10
1.18802290657e-09
-1.79076737307e-10
1.22942716127e-09
-1.8771429265e-10
1.27242554742e-09
-1.95531056087e-10