/*--------------------------------*- C++ -*----------------------------------*\
  =========                 |
  \\      /  F ield         | OpenFOAM: The Open Source CFD Toolbox
   \\    /   O peration     | Website:  https://openfoam.org
    \\  /    A nd           | Version:  7
     \\/     M anipulation  |
\*---------------------------------------------------------------------------*/
FoamFile
{
    version     2.0;
    format      ascii;
    class       volVectorField;
    location    "660";
    object      U;
}
// * * * * * * * * * * * * * * * * * * * * * * * * * * * * * * * * * * * * * //

dimensions      [0 1 -1 0 0 0 0];

internalField   nonuniform List<vector> 
8192
(
(0.00104344746196 0.000156552538036 0)
(0.000759281160857 0.000127613765796 0)
(0.000549269221075 8.23981790258e-05 0)
(0.000414031519406 5.28395268583e-05 0)
(0.000326263328694 3.49286673968e-05 0)
(0.000267309471053 2.40251934343e-05 0)
(0.000226099904211 1.71843764673e-05 0)
(0.000196193092799 1.27224379702e-05 0)
(0.000173778139101 9.69251874148e-06 0)
(0.000156530431123 7.55519223815e-06 0)
(0.000142980213986 5.99502788194e-06 0)
(0.000132163623839 4.8215652259e-06 0)
(0.000123426262903 3.91579864086e-06 0)
(0.000116309672412 3.20079474631e-06 0)
(0.000110483703966 2.62517655023e-06 0)
(0.000105704948241 2.15358197456e-06 0)
(0.000101790379971 1.76098903331e-06 0)
(9.860015285e-05 1.42924075698e-06 0)
(9.60260587637e-05 1.14485591923e-06 0)
(9.3983593116e-05 8.97612231673e-07 0)
(9.24063772839e-05 6.7960600672e-07 0)
(9.12421602138e-05 4.84613365804e-07 0)
(9.04499022561e-05 3.07646781366e-07 0)
(8.99976163881e-05 1.44641157712e-07 0)
(8.98607496115e-05 -7.77243462885e-09 0)
(9.00209560972e-05 -1.52432231009e-07 0)
(9.04651576686e-05 -2.91767648154e-07 0)
(9.11848178774e-05 -4.27890991849e-07 0)
(9.21753770776e-05 -5.62666756414e-07 0)
(9.34358077543e-05 -6.97762571408e-07 0)
(9.49682573365e-05 -8.34685747158e-07 0)
(9.67777517976e-05 -9.74807508957e-07 0)
(9.88719366254e-05 -1.11937614001e-06 0)
(0.000101260833127 -1.26951916583e-06 0)
(0.000103956587883 -1.42623432752e-06 0)
(0.000106973191925 -1.59036832135e-06 0)
(0.000110326144064 -1.76258222256e-06 0)
(0.0001140320303 -1.94330213216e-06 0)
(0.000118107988814 -2.13265411878e-06 0)
(0.000122571028683 -2.33038299567e-06 0)
(0.000127437171267 -2.53575622604e-06 0)
(0.000132720387893 -2.74745629733e-06 0)
(0.000138431317716 -2.96346854384e-06 0)
(0.000144575767582 -3.18097531125e-06 0)
(0.000151153022392 -3.3962723054e-06 0)
(0.000158154029936 -3.60472670687e-06 0)
(0.000165559565534 -3.80079886632e-06 0)
(0.000173338522958 -3.97814688942e-06 0)
(0.000181446509064 -4.12982577439e-06 0)
(0.000189824928287 -4.24857812179e-06 0)
(0.000198400718692 -4.32719501013e-06 0)
(0.000207086839738 -4.3589068128e-06 0)
(0.000215783520766 -4.3377531404e-06 0)
(0.00022438018083 -4.25888421145e-06 0)
(0.000232757856088 -4.11876707385e-06 0)
(0.000240791949874 -3.91530202529e-06 0)
(0.000248355161678 -3.64788510363e-06 0)
(0.000255320536061 -3.31746547933e-06 0)
(0.000261564665243 -2.92664172925e-06 0)
(0.000266971153051 -2.47982687852e-06 0)
(0.000271434484471 -1.98348896296e-06 0)
(0.000274864392319 -1.44640759611e-06 0)
(0.00027719057633 -8.79769854212e-07 0)
(0.00027836719837 -2.96850550145e-07 0)
(0.000278376168725 2.87876894944e-07 0)
(0.000277228211969 8.60071744898e-07 0)
(0.000274961223507 1.40690396943e-06 0)
(0.000271636243074 1.91805931887e-06 0)
(0.000267332067749 2.38609477371e-06 0)
(0.000262139782357 2.80616572364e-06 0)
(0.000256158199409 3.17538923398e-06 0)
(0.000249490619542 3.49216023578e-06 0)
(0.00024224279357 3.75563369707e-06 0)
(0.000234521673744 3.96545322678e-06 0)
(0.00022643446931 4.12171819133e-06 0)
(0.000218087587844 4.2251308203e-06 0)
(0.000209585197861 4.2772278534e-06 0)
(0.000201027352754 4.28058755954e-06 0)
(0.00019250781514 4.23892233068e-06 0)
(0.000184111853383 4.15701390388e-06 0)
(0.000175914317506 4.04049877331e-06 0)
(0.000167978248697 3.89554917199e-06 0)
(0.000160354169941 3.72851098849e-06 0)
(0.000153080084563 3.54555792189e-06 0)
(0.000146182106447 3.35240567063e-06 0)
(0.000139675577792 3.154110188e-06 0)
(0.000133566501814 2.95495449672e-06 0)
(0.000127853122506 2.75841479289e-06 0)
(0.000122527510571 2.56718818591e-06 0)
(0.000117577051857 2.38326243289e-06 0)
(0.000112985772902 2.208009114e-06 0)
(0.000108735471208 2.04228570285e-06 0)
(0.000104806643231 1.88653579886e-06 0)
(0.000101179220127 1.7408811212e-06 0)
(9.78331314198e-05 1.60520160718e-06 0)
(9.47487213174e-05 1.47920265111e-06 0)
(9.19070433166e-05 1.36246958719e-06 0)
(8.92900572233e-05 1.25451078602e-06 0)
(8.68807500164e-05 1.15479071548e-06 0)
(8.46631987588e-05 1.06275483362e-06 0)
(8.26225905156e-05 9.77847687576e-07 0)
(8.07452112457e-05 8.99525843193e-07 0)
(7.90184129974e-05 8.27266649808e-07 0)
(7.74305665198e-05 7.60574061045e-07 0)
(7.59710045583e-05 6.98982130055e-07 0)
(7.4629959604e-05 6.42057059833e-07 0)
(7.33984986509e-05 5.89398146592e-07 0)
(7.22684565098e-05 5.40638278169e-07 0)
(7.12323683884e-05 4.95444171474e-07 0)
(7.02834016863e-05 4.53516918524e-07 0)
(6.94152862315e-05 4.14593000236e-07 0)
(6.86222414054e-05 3.78446383418e-07 0)
(6.78988976952e-05 3.44891997203e-07 0)
(6.72402090452e-05 3.13791456962e-07 0)
(6.66413507917e-05 2.85061757644e-07 0)
(6.60975956885e-05 2.58688489159e-07 0)
(6.56041571488e-05 2.3474540611e-07 0)
(6.5155983622e-05 2.13423721637e-07 0)
(6.47474797831e-05 1.95076003484e-07 0)
(6.43721167633e-05 1.80283233997e-07 0)
(6.40218712755e-05 1.69958857205e-07 0)
(6.36863959026e-05 1.65513562093e-07 0)
(6.33517612003e-05 1.69118677661e-07 0)
(6.29985198231e-05 1.84120736674e-07 0)
(6.25987628697e-05 2.15634679347e-07 0)
(6.21121041118e-05 2.71022807091e-07 0)
(6.14827306548e-05 3.58349651535e-07 0)
(6.06645372126e-05 4.59843151239e-07 0)
(0.00121015784283 0.000302947236413 0)
(0.00116029159945 0.000315251622314 0)
(0.00102697443731 0.000238089437722 0)
(0.000887698951852 0.000171661466285 0)
(0.000767285473884 0.000124288405925 0)
(0.000669201369815 9.1703425094e-05 0)
(0.000590734642157 6.91824475047e-05 0)
(0.000528052596984 5.33132316262e-05 0)
(0.00047771308432 4.18561995079e-05 0)
(0.000436977179899 3.33751318791e-05 0)
(0.000403756749521 2.69457436966e-05 0)
(0.000376480162463 2.19640344767e-05 0)
(0.000353963789072 1.8027071476e-05 0)
(0.000335310029964 1.48598791516e-05 0)
(0.00031983166569 1.22704323619e-05 0)
(0.00030699715941 1.0121595499e-05 0)
(0.000296391387119 8.31332320721e-06 0)
(0.000287687377676 6.77115006513e-06 0)
(0.000280625828105 5.43859693814e-06 0)
(0.000275000110432 4.27206093002e-06 0)
(0.000270645179699 3.23730996697e-06 0)
(0.000267429278213 2.30703372761e-06 0)
(0.000265247665168 1.45910283515e-06 0)
(0.000264017829611 6.75311567739e-07 0)
(0.00026367580154 -5.95433484588e-08 0)
(0.000264173283531 -7.58345543988e-07 0)
(0.000265475399161 -1.43216768826e-06 0)
(0.00026755890838 -2.09065691965e-06 0)
(0.000270410776861 -2.74232541645e-06 0)
(0.000274027008933 -3.39476389348e-06 0)
(0.000278411670126 -4.05479270233e-06 0)
(0.000283576036528 -4.72855910876e-06 0)
(0.000289537814486 -5.42158510451e-06 0)
(0.000296320376867 -6.13876682037e-06 0)
(0.000303951962126 -6.88432422329e-06 0)
(0.000312464780414 -7.66169790023e-06 0)
(0.000321893967904 -8.47338880385e-06 0)
(0.000332276327246 -9.32073678738e-06 0)
(0.000343648790182 -1.0203635406e-05 0)
(0.000356046539645 -1.1120184032e-05 0)
(0.000369500735636 -1.20662848917e-05 0)
(0.000384035804908 -1.30352023878e-05 0)
(0.000399666282106 -1.40171156338e-05 0)
(0.000416393232481 -1.4998711467e-05 0)
(0.000434200344831 -1.5962882689e-05 0)
(0.000453049856193 -1.688861051e-05 0)
(0.000472878550401 -1.77511155919e-05 0)
(0.000493594148191 -1.85223511173e-05 0)
(0.000515072458489 -1.91718783538e-05 0)
(0.000537155667472 -1.96681085688e-05 0)
(0.000559652086198 -1.99798228659e-05 0)
(0.000582337554107 -2.00778116047e-05 0)
(0.000604958520689 -1.99364346819e-05 0)
(0.000627236641549 -1.95349182545e-05 0)
(0.000648874583619 -1.88582823425e-05 0)
(0.000669562687515 -1.78979156026e-05 0)
(0.000688986198304 -1.66519267607e-05 0)
(0.000706832914875 -1.51254514699e-05 0)
(0.000722801255604 -1.33310690611e-05 0)
(0.000736608840877 -1.12894252526e-05 0)
(0.000748001720158 -9.03006521989e-06 0)
(0.00075676424849 -6.59224426332e-06 0)
(0.000762729201126 -4.02506025556e-06 0)
(0.000765786991588 -1.38597702011e-06 0)
(0.000765892199775 1.26280667079e-06 0)
(0.000763065626486 3.85964052453e-06 0)
(0.000757391036838 6.34886909015e-06 0)
(0.000749007210101 8.68484524367e-06 0)
(0.000738097156225 1.08334711001e-05 0)
(0.000724876822712 1.27713319805e-05 0)
(0.000709585144866 1.44833999135e-05 0)
(0.00069247629429 1.59604907121e-05 0)
(0.000673814043892 1.71972871001e-05 0)
(0.000653867617891 1.81912521339e-05 0)
(0.000632908220623 1.89424284521e-05 0)
(0.000611205515619 1.94539172276e-05 0)
(0.000589023579343 1.97326820884e-05 0)
(0.000566616214915 1.97902625384e-05 0)
(0.000544221872239 1.96430533951e-05 0)
(0.00052205866788 1.93119812226e-05 0)
(0.000500320071953 1.88216021829e-05 0)
(0.000479171741878 1.81987901017e-05 0)
(0.000458749792503 1.74712498429e-05 0)
(0.000439160568459 1.66660858481e-05 0)
(0.000420481785844 1.58086009501e-05 0)
(0.000402764771683 1.49214246681e-05 0)
(0.000386037462318 1.40239961202e-05 0)
(0.000370307818316 1.31323704238e-05 0)
(0.000355567355361 1.22592839854e-05 0)
(0.000341794556998 1.14144023117e-05 0)
(0.000328958007982 1.0604677408e-05 0)
(0.000317019154044 9.83475443975e-06 0)
(0.00030593464849 9.10738285998e-06 0)
(0.000295658285989 8.42380252809e-06 0)
(0.000286142550272 7.78408787142e-06 0)
(0.000277339817424 7.18744280059e-06 0)
(0.000269203262982 6.63244544108e-06 0)
(0.000261687521695 6.11724588282e-06 0)
(0.00025474914591 5.63972213714e-06 0)
(0.000248346903558 5.19760047249e-06 0)
(0.000242441951023 4.78854618991e-06 0)
(0.00023699791031 4.41023060314e-06 0)
(0.000231980874465 4.06037919438e-06 0)
(0.000227359360296 3.73680533101e-06 0)
(0.000223104223173 3.43743309814e-06 0)
(0.000219188545075 3.16031232172e-06 0)
(0.00021558750394 2.90362821184e-06 0)
(0.000212278229846 2.66570779315e-06 0)
(0.000209239651243 2.44502487863e-06 0)
(0.000206452332538 2.24020531634e-06 0)
(0.000203898302472 2.05003407497e-06 0)
(0.0002015608709 1.87346596886e-06 0)
(0.000199424429695 1.70964196104e-06 0)
(0.000197474231331 1.55791358128e-06 0)
(0.000195696136197 1.41787861016e-06 0)
(0.000194076316701 1.28943242435e-06 0)
(0.00019260090267 1.17284092788e-06 0)
(0.000191255548546 1.06884354294e-06 0)
(0.000190024899091 9.78798101913e-07 0)
(0.000188891928543 9.0488440382e-07 0)
(0.000187837133818 8.50388823218e-07 0)
(0.000186837588903 8.20096161664e-07 0)
(0.000185865949877 8.20803522729e-07 0)
(0.000184889725965 8.61896334794e-07 0)
(0.000183871732413 9.55606054236e-07 0)
(0.000182774148696 1.11529131236e-06 0)
(0.000181573118446 1.34448299092e-06 0)
(0.000180288829738 1.5761909079e-06 0)
(0.00122477812591 0.000268011273156 0)
(0.00124109635611 0.000383735611604 0)
(0.00119627002702 0.000347748953036 0)
(0.00111365911594 0.000283888358563 0)
(0.00102088813074 0.000225245986354 0)
(0.000931653852744 0.000178064235604 0)
(0.000851379321923 0.000141562904113 0)
(0.000781450822054 0.000113543328618 0)
(0.000721492879611 9.19235661155e-05 0)
(0.00067047462283 7.50619348913e-05 0)
(0.000627214041987 6.17399602245e-05 0)
(0.000590589323562 5.1071131634e-05 0)
(0.000559613698518 4.24119808131e-05 0)
(0.000533449889969 3.52925453651e-05 0)
(0.000511400077733 2.93659503549e-05 0)
(0.000492887764548 2.4372904442e-05 0)
(0.000477438633403 2.01169249109e-05 0)
(0.000464663165415 1.64470327112e-05 0)
(0.000454241847657 1.32455882098e-05 0)
(0.000445912980246 1.04196609692e-05 0)
(0.000439462786402 7.8948403296e-06 0)
(0.000434717451311 5.61074533419e-06 0)
(0.000431536730982 3.51772952622e-06 0)
(0.000429808820185 1.57443566035e-06 0)
(0.000429446221965 -2.54037238337e-07 0)
(0.000430382409204 -1.99751750081e-06 0)
(0.000432569108659 -3.68180796497e-06 0)
(0.00043597407354 -5.32948840933e-06 0)
(0.000440579234128 -6.96052114896e-06 0)
(0.000446379130804 -8.59269549861e-06 0)
(0.000453379547519 -1.02419379539e-05 0)
(0.000461596271754 -1.19225037006e-05 0)
(0.000471053911201 -1.36470572452e-05 0)
(0.000481784698484 -1.54266436252e-05 0)
(0.00049382721404 -1.72705472591e-05 0)
(0.000507224954462 -1.91860320958e-05 0)
(0.000522024670216 -2.11779555787e-05 0)
(0.000538274393976 -2.32482497043e-05 0)
(0.000556021080555 -2.53952670733e-05 0)
(0.000575307784098 -2.7612998484e-05 0)
(0.000596170310617 -2.98901836271e-05 0)
(0.000618633307786 -3.22093578087e-05 0)
(0.000642705792746 -3.45459065652e-05 0)
(0.000668376175612 -3.68672338567e-05 0)
(0.000695606912428 -3.91321848236e-05 0)
(0.000724329014073 -4.12908914045e-05 0)
(0.00075443673844 -4.32852173725e-05 0)
(0.000785782886713 -4.50499530397e-05 0)
(0.000818175187684 -4.65148384458e-05 0)
(0.00085137426077 -4.76073741194e-05 0)
(0.000885093576113 -4.82562277564e-05 0)
(0.000919001672079 -4.8394900066e-05 0)
(0.000952726665414 -4.79652294854e-05 0)
(0.000985862846864 -4.69203442803e-05 0)
(0.00101797896586 -4.52268330018e-05 0)
(0.00104862773822 -4.28661564352e-05 0)
(0.00107735618308 -3.98355594668e-05 0)
(0.00110371656304 -3.61488391753e-05 0)
(0.00112727786985 -3.18372621339e-05 0)
(0.00114763790045 -2.69507936972e-05 0)
(0.00116443599924 -2.15596353858e-05 0)
(0.00117736644271 -1.57556230546e-05 0)
(0.00118619198876 -9.65217481035e-06 0)
(0.0011907561922 -3.38086874095e-06 0)
(0.00119099216797 2.9164846865e-06 0)
(0.00118692544018 9.09921713067e-06 0)
(0.00117866975115 1.50395088956e-05 0)
(0.00116641664169 2.06310647531e-05 0)
(0.001150421252 2.5792605264e-05 0)
(0.00113098736774 3.04663147576e-05 0)
(0.00110845407597 3.46132775068e-05 0)
(0.00108318507385 3.82083509461e-05 0)
(0.00105556050159 4.12361318942e-05 0)
(0.00102597054218 4.36886750398e-05 0)
(0.000994809849911 4.55649797131e-05 0)
(0.000962471954741 4.6871855153e-05 0)
(0.000929343080397 4.76254498185e-05 0)
(0.00089579525484 4.7852587055e-05 0)
(0.000862179043085 4.75911935907e-05 0)
(0.000828816537904 4.68894692455e-05 0)
(0.000795995327976 4.58038471183e-05 0)
(0.000763964045556 4.4396092907e-05 0)
(0.000732929852895 4.27300319419e-05 0)
(0.000703057944777 4.08683857128e-05 0)
(0.000674472894576 3.8870089847e-05 0)
(0.000647261495854 3.67883099063e-05 0)
(0.000621476664602 3.46692172275e-05 0)
(0.000597141959379 3.25514679552e-05 0)
(0.000574256325747 3.04662554107e-05 0)
(0.00055279875193 2.8437777745e-05 0)
(0.000532732612763 2.6483966585e-05 0)
(0.000514009563454 2.46173462075e-05 0)
(0.000496572914977 2.28459237012e-05 0)
(0.000480360476112 2.11740421971e-05 0)
(0.000465306883776 1.96031557227e-05 0)
(0.000451345465824 1.81325053522e-05 0)
(0.000438409692129 1.6759690637e-05 0)
(0.000426434273483 1.54811401464e-05 0)
(0.000415355966479 1.4292490054e-05 0)
(0.00040511413795 1.31888826687e-05 0)
(0.000395651136399 1.21651971503e-05 0)
(0.000386912511111 1.12162245669e-05 0)
(0.000378847112977 1.03367980167e-05 0)
(0.000371407104812 9.52188757174e-06 0)
(0.000364547903414 8.76666807376e-06 0)
(0.000358228070665 8.0665669073e-06 0)
(0.000352409166782 7.41729742979e-06 0)
(0.000347055575159 6.81488321152e-06 0)
(0.000342134305108 6.25567722813e-06 0)
(0.000337614776081 5.73638007233e-06 0)
(0.00033346858447 5.25406070189e-06 0)
(0.000329669251867 4.80618362967e-06 0)
(0.000326191951577 4.3906463984e-06 0)
(0.000323013208192 4.00583207753e-06 0)
(0.000320110563314 3.65068199385e-06 0)
(0.000317462199182 3.32479533298e-06 0)
(0.000315046511673 3.0285631553e-06 0)
(0.000312841625957 2.76334583268e-06 0)
(0.000310824854424 2.53170273482e-06 0)
(0.000308972111747 2.33768038014e-06 0)
(0.000307257335004 2.1871533417e-06 0)
(0.000305652024254 2.08817812268e-06 0)
(0.000304125152136 2.05122534355e-06 0)
(0.000302643945389 2.08889953285e-06 0)
(0.000301176494187 2.21404367151e-06 0)
(0.000299697871545 2.43305763982e-06 0)
(0.000298201138005 2.72447924906e-06 0)
(0.000296705631834 2.97598918785e-06 0)
(0.00122193905924 0.000221294092096 0)
(0.00125345912432 0.000382614506162 0)
(0.00125126822424 0.000395887296204 0)
(0.00121380839257 0.000355820765124 0)
(0.0011561028959 0.000303790067416 0)
(0.00109055080233 0.000254306531291 0)
(0.00102461900836 0.000211526938207 0)
(0.000962261316907 0.000175865490789 0)
(0.000905296874376 0.000146523793804 0)
(0.000854341145461 0.000122435697715 0)
(0.000809370868791 0.000102597059632 0)
(0.000770050170136 8.61594539042e-05 0)
(0.000735912261328 7.24371968489e-05 0)
(0.000706457074734 6.08863287573e-05 0)
(0.000681201154842 5.10779031803e-05 0)
(0.000659701011475 4.26734120341e-05 0)
(0.000641562082864 3.54044806844e-05 0)
(0.000626440168867 2.90568622459e-05 0)
(0.00061403915397 2.34580943292e-05 0)
(0.000604107109388 1.84680694855e-05 0)
(0.000596431887577 1.39718497121e-05 0)
(0.000590836777012 9.87418341984e-06 0)
(0.000587176483803 6.09530632038e-06 0)
(0.00058533354322 2.56771108644e-06 0)
(0.000585215177741 -7.6634865715e-07 0)
(0.000586750572209 -3.95678803022e-06 0)
(0.000589888517095 -7.04718258003e-06 0)
(0.000594595366634 -1.00759295788e-05 0)
(0.000600853251179 -1.30771270189e-05 0)
(0.000608658479869 -1.60812174055e-05 0)
(0.000618020072267 -1.91154280152e-05 0)
(0.000628958356432 -2.22040252526e-05 0)
(0.000641503568755 -2.53683909198e-05 0)
(0.000655694387709 -2.86269197376e-05 0)
(0.00067157632945 -3.19947319002e-05 0)
(0.00068919992857 -3.54831901312e-05 0)
(0.000708618622918 -3.90992101908e-05 0)
(0.000729886258606 -4.28443561772e-05 0)
(0.000753054131843 -4.67137207827e-05 0)
(0.00077816749057 -5.06946057281e-05 0)
(0.00080526143406 -5.47650429347e-05 0)
(0.000834356176472 -5.88922319785e-05 0)
(0.000865451684671 -6.3031016266e-05 0)
(0.000898521764948 -6.71225742504e-05 0)
(0.000933507759044 -7.10935579427e-05 0)
(0.000970312114898 -7.48559534294e-05 0)
(0.00100879221318 -7.83079501018e-05 0)
(0.0010487549401 -8.13360615225e-05 0)
(0.00108995257432 -8.38186246295e-05 0)
(0.0011320805696 -8.5630608892e-05 0)
(0.00117477773616 -8.66494204611e-05 0)
(0.00121762914023 -8.67611461421e-05 0)
(0.00126017177072 -8.58665397182e-05 0)
(0.00130190272112 -8.38860932015e-05 0)
(0.00134228939281 -8.07637985651e-05 0)
(0.00138078113107 -7.64696240527e-05 0)
(0.00141682179552 -7.10011252911e-05 0)
(0.00144986298012 -6.43847667878e-05 0)
(0.001479377796 -5.66773941257e-05 0)
(0.00150487522885 -4.79680731931e-05 0)
(0.00152591514168 -3.83803292936e-05 0)
(0.00154212400919 -2.80742175616e-05 0)
(0.00155321106297 -1.72461743442e-05 0)
(0.00155898332673 -6.12334779355e-06 0)
(0.00155935661295 5.04967340765e-06 0)
(0.00155435931831 1.6030006205e-05 0)
(0.0015441274534 2.65962138122e-05 0)
(0.00152889193811 3.65629106234e-05 0)
(0.00150896135158 4.57866493528e-05 0)
(0.00148470399874 5.41634114046e-05 0)
(0.00145653215885 6.16212086387e-05 0)
(0.0014248895768 6.81118953759e-05 0)
(0.00139024182902 7.36047969436e-05 0)
(0.00135306859034 7.80830980808e-05 0)
(0.00131385673147 8.15430005763e-05 0)
(0.0012730932897 8.39950685838e-05 0)
(0.00123125767813 8.54666256755e-05 0)
(0.0011888130262 8.60037990913e-05 0)
(0.00114619709388 8.56720437271e-05 0)
(0.0011038135585 8.45545857429e-05 0)
(0.00106202454801 8.27488850648e-05 0)
(0.00102114512852 8.03616985369e-05 0)
(0.000981440150296 7.75035459873e-05 0)
(0.000943123518939 7.4283366391e-05 0)
(0.000906359668019 7.08039712346e-05 0)
(0.000871266811684 6.71586494177e-05 0)
(0.000837921462696 6.34290279048e-05 0)
(0.00080636369915 5.96840993471e-05 0)
(0.00077660272394 5.59802088227e-05 0)
(0.000748622355118 5.23617449826e-05 0)
(0.000722386188164 4.88622849966e-05 0)
(0.000697842266371 4.55059794968e-05 0)
(0.000674927174515 4.23090120465e-05 0)
(0.000653569530909 3.92810180349e-05 0)
(0.000633692894727 3.6426390302e-05 0)
(0.00061521813194 3.3745433428e-05 0)
(0.000598065297705 3.12353523086e-05 0)
(0.000582155098823 2.88910776447e-05 0)
(0.000567409999797 2.67059400087e-05 0)
(0.000553755032229 2.46722100016e-05 0)
(0.000541118361412 2.27815231483e-05 0)
(0.000529431657217 2.1025208806e-05 0)
(0.000518630309391 1.9394540318e-05 0)
(0.000508653520724 1.78809225512e-05 0)
(0.000499444305399 1.64760301803e-05 0)
(0.000490949414392 1.51719088875e-05 0)
(0.000483119204924 1.39610491535e-05 0)
(0.000475907466865 1.28364416056e-05 0)
(0.000469271215337 1.179162099e-05 0)
(0.000463170455708 1.0820705751e-05 0)
(0.000457567924483 9.91843892208e-06 0)
(0.000452428807366 9.08023654116e-06 0)
(0.000447720433917 8.30224906802e-06 0)
(0.000443411946846 7.58144222486e-06 0)
(0.000439473943342 6.91570320662e-06 0)
(0.000435878086268 6.3039790302e-06 0)
(0.000432596685346 5.74645244906e-06 0)
(0.000429602253906 5.24475925945e-06 0)
(0.000426867057605 4.80224388784e-06 0)
(0.00042436269131 4.4242363257e-06 0)
(0.00042205975486 4.11830030905e-06 0)
(0.000419927756084 3.89433216692e-06 0)
(0.000417935460817 3.76423198487e-06 0)
(0.000416052039315 3.74051610791e-06 0)
(0.000414249491276 3.83242293306e-06 0)
(0.000412506677446 4.03611309872e-06 0)
(0.000410813500341 4.31133413457e-06 0)
(0.0004091654283 4.53271296724e-06 0)
(0.00121695837839 0.000182396656976 0)
(0.00124921261957 0.000357737640047 0)
(0.00126599422377 0.000406173462726 0)
(0.00125648674441 0.000392501912987 0)
(0.00122646172949 0.00035483943347 0)
(0.00118422356127 0.000311047428811 0)
(0.0011363155214 0.000268625876146 0)
(0.00108710652329 0.000230333244005 0)
(0.00103927864663 0.000196848361322 0)
(0.000994358886162 0.000167986621064 0)
(0.000953127806591 0.000143247493909 0)
(0.000915902087757 0.00012205543838 0)
(0.000882720929117 0.000103860280938 0)
(0.000853465741992 8.81736193317e-05 0)
(0.000827935473265 7.45768019724e-05 0)
(0.000805893099401 6.27170309939e-05 0)
(0.00078709366989 5.22992201099e-05 0)
(0.000771300682883 4.30770237957e-05 0)
(0.000758295166762 3.48444634414e-05 0)
(0.000747880262267 2.74286487264e-05 0)
(0.000739883077745 2.068367567e-05 0)
(0.000734154933681 1.4485610505e-05 0)
(0.000730570693202 8.72841084121e-06 0)
(0.000729027607871 3.32062985896e-06 0)
(0.000729443938058 -1.81723533357e-06 0)
(0.000731757494732 -6.75485630141e-06 0)
(0.000735924185588 -1.15537544886e-05 0)
(0.000741916607504 -1.62686342107e-05 0)
(0.000749722688972 -2.09483941313e-05 0)
(0.000759344366811 -2.56368631776e-05 0)
(0.000770796270538 -3.03732853102e-05 0)
(0.00078410437594 -3.51925649832e-05 0)
(0.000799304579692 -4.01252751489e-05 0)
(0.000816441138331 -4.51974212816e-05 0)
(0.000835564906785 -5.04299488608e-05 0)
(0.000856731304324 -5.5837978062e-05 0)
(0.000879997929538 -6.14297497253e-05 0)
(0.000905421741897 -6.72052719656e-05 0)
(0.000933055727211 -7.31546698449e-05 0)
(0.000962944970141 -7.92562632459e-05 0)
(0.000995122072002 -8.54744338636e-05 0)
(0.00102960188021 -9.17573924381e-05 0)
(0.00106637554125 -9.80350229554e-05 0)
(0.00110540395622 -0.00010421705726 0)
(0.00114661080919 -0.000110191912403 0)
(0.00118987545378 -0.000115826585152 0)
(0.00123502607363 -0.000120968016967 0)
(0.00128183366184 -0.000125446284371 0)
(0.00133000746324 -0.000129079805597 0)
(0.00137919255359 -0.000131682474922 0)
(0.00142897015245 -0.000133072274125 0)
(0.00147886105949 -0.000133080550786 0)
(0.00152833228083 -0.000131560927367 0)
(0.00157680653784 -0.000128396847512 0)
(0.00162367403811 -0.000123507146274 0)
(0.0016683057627 -0.000116849666803 0)
(0.00171006765024 -0.000108423562322 0)
(0.00174833535696 -9.82711521869e-05 0)
(0.00178250952478 -8.64799302181e-05 0)
(0.00181203156642 -7.31849593706e-05 0)
(0.00183640006323 -5.85718134458e-05 0)
(0.00185518811808 -4.28796316526e-05 0)
(0.00186806177511 -2.64014636071e-05 0)
(0.00187479799106 -9.47654809695e-06 0)
(0.00187529835944 7.52919204791e-06 0)
(0.00186959416877 2.42519292895e-05 0)
(0.00185784053637 4.03597290979e-05 0)
(0.00184030097276 5.55744014632e-05 0)
(0.00181732666125 6.96799718842e-05 0)
(0.00178933552334 8.25184855083e-05 0)
(0.00175679456491 9.39788320501e-05 0)
(0.00172020640248 0.00010398491185 0)
(0.00168009909685 0.000112486728227 0)
(0.00163701796703 0.000119455431005 0)
(0.00159151814463 0.000124882247975 0)
(0.00154415676836 0.000128780543235 0)
(0.00149548406911 0.000131189372025 0)
(0.00144603325353 0.000132176437453 0)
(0.00139630978964 0.000131838726301 0)
(0.00134678111938 0.000130300041261 0)
(0.00129786786973 0.000127705629749 0)
(0.00124993739293 0.000124214797493 0)
(0.0012033000786 0.000119992693684 0)
(0.00115820847583 0.000115202413008 0)
(0.00111485892912 0.000109998287779 0)
(0.00107339521744 0.000104520870985 0)
(0.00103391359646 9.88937501886e-05 0)
(0.000996468657762 9.32220562462e-05 0)
(0.00096107949951 8.75923647203e-05 0)
(0.000927735815182 8.20736233682e-05 0)
(0.000896403623408 7.67187477605e-05 0)
(0.000867030465971 7.15665792437e-05 0)
(0.000839549985271 6.66439686471e-05 0)
(0.000813885855198 6.19678191398e-05 0)
(0.0007899550826 5.7546982029e-05 0)
(0.000767670723723 5.33839472905e-05 0)
(0.000746944074977 4.94763051216e-05 0)
(0.000727686403627 4.58179784652e-05 0)
(0.000709810284244 4.24002406725e-05 0)
(0.00069323060332 3.92125405778e-05 0)
(0.000677865288799 3.6243160343e-05 0)
(0.000663635814704 3.3479732049e-05 0)
(0.00065046752409 3.09096374166e-05 0)
(0.000638289806902 2.85203130124e-05 0)
(0.000627036163062 2.62994804417e-05 0)
(0.000616644175506 2.42353186574e-05 0)
(0.000607055412917 2.23165928791e-05 0)
(0.000598215277554 2.05327527706e-05 0)
(0.000590072809881 1.88740105858e-05 0)
(0.000582580458501 1.73314088831e-05 0)
(0.000575693821268 1.58968861962e-05 0)
(0.000569371361323 1.4563348579e-05 0)
(0.000563574100205 1.33247542291e-05 0)
(0.000558265289258 1.21762181834e-05 0)
(0.000553410060473 1.11141432075e-05 0)
(0.00054897505902 1.01363819026e-05 0)
(0.000544928062686 9.24243198288e-06 0)
(0.000541237598993 8.43366095965e-06 0)
(0.000537872580418 7.71354429469e-06 0)
(0.000534801993441 7.08787775676e-06 0)
(0.00053199470041 6.56487849498e-06 0)
(0.000529419445607 6.1549994919e-06 0)
(0.000527045195708 5.8701036972e-06 0)
(0.000524841969626 5.721287751e-06 0)
(0.000522782237925 5.71392856265e-06 0)
(0.000520842487799 5.83717053192e-06 0)
(0.000519002679952 6.04326200088e-06 0)
(0.000517237078745 6.21445923582e-06 0)
(0.0012128871019 0.000152551178107 0)
(0.00124191667038 0.000326299311846 0)
(0.00126627093534 0.000396475923724 0)
(0.00127300086202 0.000404977005602 0)
(0.00126235217286 0.000383038044852 0)
(0.00123895475135 0.000348484406523 0)
(0.00120763549713 0.000310416191748 0)
(0.00117221872875 0.000273168694103 0)
(0.00113543337202 0.00023862614379 0)
(0.00109911547248 0.000207446497741 0)
(0.00106444188915 0.00017969227917 0)
(0.001032125516 0.000155152744018 0)
(0.00100256246363 0.00013350718507 0)
(0.000975938087045 0.000114406277495 0)
(0.000952301505911 9.75109920447e-05 0)
(0.000931617145167 8.25095736694e-05 0)
(0.000913799932136 6.91233178471e-05 0)
(0.00089873904324 5.71067995266e-05 0)
(0.000886313709824 4.6245534473e-05 0)
(0.000876403560184 3.63526286689e-05 0)
(0.000868895228266 2.72652085778e-05 0)
(0.000863686428847 1.88410170149e-05 0)
(0.000860688326 1.09553430673e-05 0)
(0.000859826760858 3.49834294532e-06 0)
(0.000861042723361 -3.62724688597e-06 0)
(0.000864292320212 -1.05080047064e-05 0)
(0.000869546414143 -1.72213979882e-05 0)
(0.000876790047196 -2.38370535062e-05 0)
(0.000886021703024 -3.04177206741e-05 0)
(0.000897252437766 -3.70199584608e-05 0)
(0.000910504886552 -4.36945524569e-05 0)
(0.000925812132937 -5.04866601535e-05 0)
(0.000943216412868 -5.74356747188e-05 0)
(0.000962767611467 -6.45747904116e-05 0)
(0.000984521499304 -7.19302477274e-05 0)
(0.00100853764455 -7.95202337347e-05 0)
(0.00103487692887 -8.73534151256e-05 0)
(0.00106359858855 -9.54270896424e-05 0)
(0.00109475670021 -0.000103724959333 0)
(0.0011283960337 -0.000112214559118 0)
(0.0011645472074 -0.000120844420789 0)
(0.00120322110662 -0.000129541117973 0)
(0.00124440256923 -0.000138206423366 0)
(0.00128804340948 -0.000146714911019 0)
(0.00133405494567 -0.000154912442819 0)
(0.00138230032163 -0.00016261606573 0)
(0.00143258705993 -0.000169615879778 0)
(0.00148466044029 -0.000175679369564 0)
(0.00153819842684 -0.000180558481372 0)
(0.00159280892527 -0.000183999354038 0)
(0.00164803008412 -0.000185754111526 0)
(0.0017033341229 -0.000185593610518 0)
(0.00175813478191 -0.000183319691945 0)
(0.00181179801597 -0.000178775511167 0)
(0.00186365514179 -0.000171853040244 0)
(0.00191301747764 -0.00016249776104 0)
(0.00195919170116 -0.00015071150571 0)
(0.00200149559788 -0.00013655474083 0)
(0.00203927422232 -0.000120149068078 0)
(0.00207191649605 -0.000101680080536 0)
(0.00209887232533 -8.14009749034e-05 0)
(0.00211967097555 -5.96371476053e-05 0)
(0.00213394167068 -3.67882899698e-05 0)
(0.00214143513934 -1.33194153685e-05 0)
(0.00214204100609 1.02657962626e-05 0)
(0.00213579461297 3.34658628682e-05 0)
(0.00212286994559 5.58240327677e-05 0)
(0.00210356053717 7.69589928181e-05 0)
(0.00207825429131 9.65758489474e-05 0)
(0.00204740909966 0.000114458840081 0)
(0.0020115335999 0.000130454831965 0)
(0.00197117352448 0.000144457043497 0)
(0.0019269018703 0.000156393450316 0)
(0.00187931106775 0.000166220537772 0)
(0.00182900573838 0.000173922193808 0)
(0.00177659473874 0.000179512879837 0)
(0.00172268153897 0.000183042847654 0)
(0.00166785284825 0.000184602388658 0)
(0.00161266632528 0.000184322690166 0)
(0.00155763871707 0.000182372291821 0)
(0.00150323576241 0.000178949526983 0)
(0.00144986484095 0.000174272249168 0)
(0.00139787084817 0.000168566506378 0)
(0.00134753528394 0.000162055730488 0)
(0.00129907815811 0.000154951611208 0)
(0.0012526620869 0.000147447303227 0)
(0.00120839787829 0.000139713123947 0)
(0.00116635094551 0.000131894533296 0)
(0.00112654799815 0.000124111974872 0)
(0.00108898359707 0.000116462081877 0)
(0.00105362629186 0.000109019770662 0)
(0.00102042417253 0.000101840818271 0)
(0.000989309754903 9.49646135043e-05 0)
(0.00096020418167 8.84168632713e-05 0)
(0.000933020763114 8.22121146551e-05 0)
(0.000907667906807 7.63560152284e-05 0)