/*--------------------------------*- C++ -*----------------------------------*\
  =========                 |
  \\      /  F ield         | OpenFOAM: The Open Source CFD Toolbox
   \\    /   O peration     | Website:  https://openfoam.org
    \\  /    A nd           | Version:  7
     \\/     M anipulation  |
\*---------------------------------------------------------------------------*/
FoamFile
{
    version     2.0;
    format      ascii;
    class       volScalarField;
    location    "2100";
    object      p;
}
// * * * * * * * * * * * * * * * * * * * * * * * * * * * * * * * * * * * * * //

dimensions      [0 2 -2 0 0 0 0];

internalField   nonuniform List<scalar> 
8192
(
0.000597615379301
0.000426068673123
0.000340460701608
0.000296358473872
0.000271346246072
0.000256121798913
0.000246266126959
0.000239534096015
0.000234718547239
0.000231135377381
0.000228377261523
0.000226190374268
0.00022440995045
0.000222925145258
0.000221659064726
0.000220556959183
0.000219578977789
0.000218695565966
0.000217884447982
0.000217128591376
0.000216414797765
0.000215732704124
0.00021507405949
0.000214432190344
0.000213801597419
0.000213177645249
0.000212556317596
0.000211934019682
0.000211307412996
0.000210673272933
0.000210028361404
0.000209369307388
0.000208692490234
0.000207993921387
0.000207269120868
0.000206512985464
0.000205719646232
0.000204882313846
0.000203993111415
0.00020304289614
0.000202021073392
0.000200915409935
0.000199711856979
0.000198394398734
0.000196944947875
0.000195343315425
0.00019356728814
0.000191592850305
0.00018939458698
0.000186946300571
0.0001842218603
0.00018119628448
0.000177847029684
0.000174155432164
0.000170108219641
0.000165698989743
0.000160929536374
0.000155810896534
0.000150363986544
0.000144619701636
0.000138618375518
0.00013240854899
0.000126045084481
0.000119586777036
0.000113093722839
0.000106624773824
0.000100235398036
9.39761493872e-05
8.78917934326e-05
8.20209907322e-05
7.6396338647e-05
7.10445608259e-05
6.59866896678e-05
6.12381727949e-05
5.68089139767e-05
5.27033110823e-05
4.89203725555e-05
4.54539838375e-05
4.2293364854e-05
3.94237200923e-05
3.6827044673e-05
3.44830223671e-05
3.23699396718e-05
3.04655441845e-05
2.87477914776e-05
2.71954466235e-05
2.57885284769e-05
2.45086029018e-05
2.33389432804e-05
2.22645830211e-05
2.1272286282e-05
2.03504614499e-05
1.94890383147e-05
1.86793256685e-05
1.79138618219e-05
1.71862668609e-05
1.64911023868e-05
1.58237421651e-05
1.51802553446e-05
1.45573027382e-05
1.39520458195e-05
1.33620676354e-05
1.27853045307e-05
1.22199874944e-05
1.16645918903e-05
1.11177944113e-05
1.05784361565e-05
1.00454908596e-05
9.5180374004e-06
8.99523587592e-06
8.47630664303e-06
7.96051192178e-06
7.44713975579e-06
6.93549042532e-06
6.42486583013e-06
5.91456302297e-06
5.40387413127e-06
4.89209666429e-06
4.37856121767e-06
3.86268891764e-06
3.34410071744e-06
2.82281924484e-06
2.29964085504e-06
1.77683276087e-06
1.2594845264e-06
7.58276246609e-07
2.96283967305e-07
-1.13761600193e-08
0.000448698609958
0.000385187826762
0.000335505944016
0.000302864158577
0.000280952819189
0.000265780546495
0.000254968126966
0.000247050477097
0.000241102316443
0.000236525313332
0.000232923490545
0.000230028757441
0.000227655576428
0.000225672849502
0.000223986143365
0.000222526224385
0.000221241512462
0.000220093013713
0.000219050850618
0.000218091840957
0.000217197777916
0.000216354187191
0.000215549413864
0.000214773940685
0.000214019870818
0.000213280528716
0.000212550146437
0.00021182361207
0.000211096262374
0.000210363707925
0.000209621681228
0.000208865899301
0.000208091934978
0.000207295092189
0.000206470281352
0.000205611891901
0.000204713659744
0.000203768528467
0.000202768504226
0.000201704505844
0.000200566213594
0.000199341922806
0.00019801841161
0.000196580836158
0.00019501267104
0.000193295717302
0.00019141020453
0.000189335016122
0.000187048066504
0.000184526854431
0.0001817492062
0.000178694206305
0.000175343291815
0.000171681463173
0.000167698541964
0.000163390389
0.000158759985107
0.000153818271609
0.000148584646111
0.000143087013797
0.000137361312056
0.00013145046727
0.000125402812449
0.0001192700864
0.000113105226155
0.000106960220831
0.000100884296554
9.49225988695e-05
8.91154098338e-05
8.34978241977e-05
7.80997209268e-05
7.29458609433e-05
6.80559896761e-05
6.34448924392e-05
5.91224129279e-05
5.50934847591e-05
5.13582395279e-05
4.7912246086e-05
4.47469114587e-05
4.18500422933e-05
3.92065354149e-05
3.67991443e-05
3.46092591272e-05
3.26176417179e-05
3.0805069772e-05
2.91528625256e-05
2.76432775838e-05
2.62597831492e-05
2.49872196498e-05
2.3811870013e-05
2.27214592715e-05
2.17051031098e-05
2.07532223523e-05
1.98574372339e-05
1.90104520561e-05
1.82059379608e-05
1.74384191012e-05
1.67031655938e-05
1.59960951523e-05
1.53136842816e-05
1.46528891524e-05
1.40110758265e-05
1.33859591869e-05
1.2775549793e-05
1.21781077952e-05
1.15921030665e-05
1.10161807312e-05
1.04491313611e-05
9.88986518603e-06
9.33738979053e-06
8.7907908886e-06
8.24921594121e-06
7.71186058195e-06
7.17795810582e-06
6.64677267193e-06
6.11759746057e-06
5.58975990526e-06
5.06263747454e-06
4.5356895906e-06
4.0085146157e-06
3.48094621556e-06
2.95321219075e-06
2.42619352287e-06
1.90184690186e-06
1.38389913344e-06
8.79037527345e-07
3.98485296224e-07
3.36210703141e-08
0.00036574295564
0.000343079625453
0.000317094983888
0.000295867270612
0.000279757270381
0.000267455216765
0.000257941312287
0.000250487790289
0.000244572608887
0.000239816605857
0.000235941556137
0.000232741502867
0.000230062699525
0.000227789388848
0.000225833645882
0.000224128084556
0.000222620591538
0.000221270499441
0.000220045785175
0.000218921001658
0.000217875737029
0.000216893455741
0.000215960618041
0.000215066003824
0.000214200187476
0.000213355124929
0.000212523824393
0.000211700079738
0.000210878249327
0.000210053070004
0.000209219496912
0.000208372560384
0.000207507234655
0.000206618313818
0.000205700291304
0.000204747240115
0.000203752691752
0.00020270951276
0.000201609778803
0.00020044464753
0.000199204233143
0.000197877487723
0.00019645209701
0.000194914401572
0.000193249357953
0.000191440558309
0.000189470330614
0.000187319944019
0.000184969944086
0.000182400639106
0.000179592750209
0.000176528223899
0.000173191186753
0.000169569000783
0.00016565335826
0.000161441340277
0.000156936355465
0.000152148872363
0.000147096857669
0.000141805833295
0.000136308474567
0.00013064370239
0.000124855282509
0.000118990031454
0.000113095820035
0.000107219625366
0.000101405900842
9.56954190717e-05
9.01246124664e-05
8.47253344282e-05
7.9524870297e-05
7.45460345799e-05
6.98072466148e-05
6.53225474454e-05
6.11015781448e-05
5.71495727117e-05
5.34674270031e-05
5.00518942696e-05
4.6895933959e-05
4.39892107373e-05
4.13187125877e-05
3.88694373166e-05
3.6625089478e-05
3.45687345154e-05
3.2683370081e-05
3.09523912613e-05
2.93599423317e-05
2.78911601514e-05
2.6532322297e-05
2.52709169916e-05
2.40956526235e-05
2.29964234228e-05
2.19642454795e-05
2.09911745933e-05
2.00702147457e-05
1.91952236555e-05
1.83608198854e-05
1.75622944495e-05
1.67955286627e-05
1.6056919145e-05
1.53433102587e-05
1.46519338756e-05
1.39803560884e-05
1.33264303506e-05
1.26882564387e-05
1.20641446286e-05
1.14525844827e-05
1.0852217706e-05
1.02618145833e-05
9.68025360573e-06
9.10650398863e-06
8.53961091915e-06
7.97868352252e-06
7.42288575058e-06
6.87143066524e-06
6.32357896812e-06
5.77864314229e-06
5.23599929554e-06
4.6951098101e-06
4.15556134456e-06
3.61712480953e-06
3.07984700203e-06
2.54418828462e-06
2.01122756832e-06
1.48296335347e-06
9.62678168981e-07
4.54681402524e-07
4.60065584742e-08
0.000321182286091
0.000312798509116
0.000298611696985
0.000284825406255
0.000273402715249
0.000264132569475
0.000256562193275
0.000250323386059
0.00024513806875
0.000240793717241
0.000237124582105
0.000233999580177
0.00023131422246
0.000228984842946
0.000226944238018
0.000225138268715
0.000223523177919
0.000222063463089
0.000220730188325
0.000219499644987
0.000218352288195
0.000217271890898
0.000216244868947
0.000215259740244
0.000214306688804
0.00021337721078
0.000212463824464
0.000211559829969
0.000210659105678
0.000209755935208
0.000208844857426
0.000207920531708
0.000206977614696
0.000206010644689
0.000205013930525
0.000203981442518
0.000202906703639
0.000201782679867
0.000200601669462
0.000199355191968
0.000198033879093
0.000196627371377
0.000195124226769
0.000193511850045
0.000191776455335
0.000189903077748
0.000187875653855
0.000185677193861
0.000183290069484
0.00018069643951
0.000177878827993
0.000174820857145
0.00017150811859
0.00016792914527
0.000164076426566
0.000159947395693
0.000155545313009
0.000150879968381
0.000145968124002
0.000140833613815
0.000135507014682
0.000130024824839
0.000124428141791
0.000118760924534
0.000113068031356
0.000107393299528
0.000101777978613
9.62596808014e-05
9.08718576863e-05
8.56437068746e-05
8.06002963576e-05
7.5762722502e-05
7.11481945868e-05
6.67700229739e-05
6.26375484398e-05
5.87560794644e-05
5.51269074266e-05
5.17474544613e-05
4.86115816939e-05
4.57100532683e-05
4.30311217138e-05
4.05611802175e-05
3.82854213044e-05
3.61884484682e-05
3.42548027563e-05
3.24693844357e-05
3.08177659587e-05
2.928640412e-05
2.78627660167e-05
2.65353860552e-05
2.52938709847e-05
2.41288680549e-05
2.30320087787e-05
2.19958380882e-05
2.10137361936e-05
2.00798383884e-05
1.91889563722e-05
1.83365033999e-05
1.75184246145e-05
1.67311332524e-05
1.59714529329e-05
1.52365659381e-05
1.45239671864e-05
1.38314234907e-05
1.31569376353e-05
1.24987167936e-05
1.18551448177e-05
1.12247579714e-05
1.06062237199e-05
9.99832225455e-06
9.39993049752e-06
8.81000841866e-06
8.22758759175e-06
7.6517620409e-06
7.08168157457e-06
6.51654799783e-06
5.9556148423e-06
5.39819159323e-06
4.84365387137e-06
4.29146173901e-06
3.74118941059e-06
3.19257140483e-06
2.64557261951e-06
2.10049096053e-06
1.55808490765e-06
1.01959586954e-06
4.85949472909e-07
4.80602451592e-08
0.000293557310788
0.000291592066861
0.000283796045149
0.000274606326923
0.000266327876733
0.000259298040065
0.000253359845418
0.000248307996133
0.00024397417185
0.000240228706578
0.000236970336507
0.000234117811358
0.000231604502046
0.000229375025506
0.000227383012843
0.00022558950392
0.000223961701922
0.000222471957957
0.000221096921751
0.0002198168241
0.000218614869369
0.000217476721705
0.000216390071191
0.000215344267821
0.000214330012486
0.000213339095451
0.000212364174345
0.00021139858366
0.000210436168483
0.00020947114027
0.000208497949662
0.000207511170056
0.000206505390026
0.000205475111737
0.000204414652967
0.00020331805077
0.000202178965249
0.000200990582412
0.000199745515663
0.000198435706275
0.00019705232426
0.000195585672459
0.000194025098612
0.000192358922707
0.000190574390125
0.000188657664963
0.000186593882195
0.000184367281363
0.000181961447148
0.000179359681778
0.000176545528632
0.00017350345411
0.000170219675525
0.000166683099414
0.000162886312811
0.000158826556466
0.000154506606264
0.000149935492456
0.000145128984814
0.000140109759059
0.000134907144989
0.000129556364675
0.000124097224381
0.000118572330837
0.000113025036184
0.000107497417417
0.000102028682236
9.66541915709e-05
9.14050889107e-05
8.63084019848e-05
8.13873324055e-05
7.66615097549e-05
7.21470992786e-05
6.78567591829e-05
6.37995099819e-05
5.99806036822e-05
5.64014771951e-05
5.30598533473e-05
4.99500206112e-05
4.70632850785e-05
4.43885537955e-05
4.1912986501e-05
3.96226478918e-05
3.75031030937e-05
3.55399185273e-05
3.37190514671e-05
3.20271289574e-05
3.04516281463e-05
2.89809756533e-05
2.76045847801e-05
2.63128478523e-05
2.50970982036e-05
2.39495532001e-05
2.28632468178e-05
2.18319578456e-05
2.08501378647e-05
1.99128416938e-05
1.90156619334e-05
1.8154668487e-05
1.73263534269e-05
1.65275812268e-05
1.57555441711e-05
1.50077226158e-05
1.42818497147e-05
1.35758801904e-05
1.28879627364e-05
1.2216415649e-05
1.1559705322e-05
1.09164272711e-05
1.02852893992e-05
9.66509725864e-06
9.05474111656e-06
8.45318468724e-06
7.85945545687e-06
7.27263660785e-06
6.6918606496e-06
6.11630500871e-06
5.54519004476e-06
4.97778029939e-06
4.41339032207e-06
3.85139722642e-06
3.29126308029e-06
2.73257021263e-06
2.1750661836e-06
1.61868121292e-06
1.06334729515e-06
5.08094905881e-07
4.84741019799e-08
0.000275205335233
0.000276103853524
0.000272064078983
0.000265931751493
0.00025983892796
0.000254407464295
0.000249687852622
0.000245585120906
0.000241992595651
0.000238821720872
0.000236003072756
0.000233481801698
0.000231213432439
0.000229160964009
0.000227293019083
0.000225582661492
0.000224006601889
0.000222544622054
0.000221179124473
0.000219894758609
0.000218678099384
0.000217517365419
0.00021640217029
0.000215323302452
0.000214272530539
0.000213242431061
0.000212226236451
0.000211217698423
0.000210210964644
0.000209200468915
0.000208180831733
0.000207146766612
0.000206092991745
0.00020501414511
0.000203904701333
0.000202758888839
0.000201570605997
0.000200333335287
0.000199040054863
0.000197683147419
0.000196254307086
0.000194744446198
0.000193143605477
0.000191440873503
0.000189624324557
0.000187680988068
0.00018559686787
0.000183357034769
0.000180945820395
0.000178347141914
0.000175544983298
0.000172524046722
0.000169270566522
0.000165773250747
0.000162024289352
0.000158020353271
0.000153763509782
0.000149261989689
0.000144530742634
0.000139591694614
0.000134473586897
0.000129211265363
0.000123844343229
0.000118415288589
0.000112967162522
0.000107541377377
0.000102175991344
9.69047812118e-05
9.17570587788e-05
8.67580308102e-05
8.19293076858e-05
7.72892800742e-05
7.2853250811e-05
6.86333473126e-05
6.4638312171e-05
6.087328777e-05
5.73396981582e-05
5.40353031387e-05
5.09544605645e-05
4.8088587522e-05
4.54267694863e-05
4.29564409107e-05
4.06640573568e-05
3.85356950786e-05
3.65575395611e-05
3.4716250122e-05
3.29992070439e-05
3.13946589391e-05
2.98917922124e-05
2.84807439193e-05
2.7152576255e-05
2.58992270242e-05
2.47134466843e-05
2.35887293899e-05
2.2519242986e-05
2.14997610829e-05
2.05255990479e-05
1.95925548778e-05
1.86968553273e-05
1.7835107307e-05
1.70042543344e-05
1.62015377005e-05
1.54244619486e-05
1.46707642447e-05
1.39383872194e-05
1.32254548867e-05
1.25302512666e-05
1.18512013759e-05
1.11868542814e-05
1.05358679443e-05
9.89699561615e-06
9.26907358147e-06
8.65101007276e-06
8.04177522666e-06
7.44039199663e-06
6.84592801046e-06
6.25748846524e-06
5.67421031882e-06
5.09525828017e-06
4.51982342294e-06
3.9471255087e-06
3.37641971908e-06
2.80700540186e-06
2.2382221856e-06
1.66937927388e-06
1.09946067885e-06
5.2628887631e-07
4.92467813716e-08
0.000262323092748
0.000264450721185
0.000262655391781
0.000258638930532
0.000254151992664
0.000249911633018
0.000246107349723
0.00024273365448
0.000239733282752
0.000237045889008
0.000234620521838
0.000232416435751
0.000230401042489
0.000228547743453
0.00022683428475
0.000225241635976
0.000223753251184
0.000222354577157
0.00022103271253
0.000219776156505
0.000218574610835
0.000217418814549
0.000216300400121
0.000215211765002
0.000214145955155
0.000213096558582
0.000212057608979
0.000211023493614
0.000209988867987
0.000208948577828
0.000207897585854
0.000206830900346
0.00020574350589
0.000204630295044
0.000203485999786
0.000202305121605
0.000201081859144
0.000199810032412
0.000198483002735
0.000197093587964
0.000195633972958
0.000194095616293
0.000192469155519
0.000190744315505
0.000188909827576
0.000186953371646
0.000184861559319
0.000182619982794
0.000180213361057
0.000177625819081
0.000174841334034
0.000171844370688
0.000168620704236
0.000165158395153
0.000161448847787
0.000157487866818
0.000153276632631
0.000148822538537
0.000144139839875
0.000139250030928
0.000134181801068
0.000128970383141
0.000123656157789
0.000118282535227
0.000112893366169
0.000107530343322
0.000102231091608
9.70282796057e-05
9.19496858183e-05
8.70189078617e-05
8.22561562864e-05
7.76787767108e-05
7.33013952774e-05
6.9135760008e-05
6.51904246279e-05
6.14704260057e-05
5.79770807221e-05
5.47079897154e-05
5.16572933189e-05
4.88161632638e-05
4.6173466121e-05
4.37165018343e-05
4.14317201356e-05
3.93053412646e-05
3.73238416978e-05
3.54742973279e-05
3.37445983918e-05
3.21235612589e-05
3.06009644181e-05
2.9167533154e-05
2.78148924308e-05
2.65355022956e-05
2.53225856277e-05
2.41700545668e-05
2.30724394508e-05
2.20248223719e-05
2.10227763452e-05
2.00623103834e-05
1.9139820357e-05
1.82520452896e-05
1.73960286279e-05
1.65690839815e-05
1.57687648334e-05
1.49928377436e-05
1.42392586063e-05
1.35061515594e-05
1.27917901873e-05
1.20945806941e-05
1.14130467592e-05
1.07458158181e-05
1.00916065385e-05
9.44921728591e-06
8.81751540025e-06
8.19542712988e-06
7.58192810753e-06
6.97603429928e-06
6.3767934269e-06
5.78327695069e-06
5.19457278236e-06
4.60977887547e-06
4.02799740554e-06
3.44832753137e-06
2.86984943752e-06
2.29157793825e-06
1.71232933511e-06
1.13038133164e-06
5.42762313482e-07
5.13679668834e-08
0.000252866214862
0.000255459476582
0.000255013526445
0.000252480092973
0.000249209199177
0.000245896061373
0.000242806300555
0.000240002379387
0.000237470102492
0.000235174009055
0.000233077807894
0.000231150297244
0.000229366005009
0.000227704266687
0.000226148085839
0.00022468318195
0.000223297289993
0.000221979671387
0.000220720777537
0.000219512015645
0.00021834558026
0.000217214326152
0.000216111666965
0.000215031490117
0.000213968082179
0.000212916061238
0.000211870316593
0.000210825946913
0.000209778202509
0.00020872243228
0.000207654031217
0.000206568387583
0.000205460829966
0.00020432657338
0.000203160663533
0.000201957918296
0.000200712865377
0.000199419675116
0.000198072087373
0.000196663331558
0.000195186039169
0.00019363214881
0.000191992804821
0.000190258252584
0.000188417736752
0.000186459413367
0.000184370293618
0.000182136245474
0.000179742088929
0.000177171828186
0.000174409065502
0.000171437630439
0.00016824243059
0.000164810487429
0.000161132076897
0.000157201871492
0.00015301999572
0.000148592948495
0.000143934367137
0.00013906555902
0.000134015617629
0.000128820856507
0.000123523338227
0.000118168472327
0.00011280195874
0.000107466662114
0.000102200379243
9.70349869877e-05
9.19968626898e-05
8.71080757965e-05
8.2387551495e-05
7.78517564732e-05
7.35148328169e-05
6.93883279667e-05
6.54807336899e-05
6.17970272764e-05
5.8338364646e-05
5.5102030463e-05
5.20816960488e-05
4.92679662825e-05
4.66491292989e-05
4.4211984602e-05
4.19426285138e-05
3.98271111664e-05
3.78519257167e-05
3.60043301783e-05
3.42725268433e-05
3.26457339864e-05
3.11141839215e-05
2.96690756375e-05
2.83025029027e-05
2.70073720143e-05
2.57773180756e-05
2.46066249135e-05
2.34901512401e-05
2.24232640974e-05
2.14017797093e-05
2.04219113635e-05
1.94802237086e-05
1.85735927652e-05
1.7699170945e-05
1.68543564169e-05
1.60367662187e-05
1.52442125807e-05
1.44746819917e-05
1.37263166001e-05
1.29973975906e-05
1.2286330227e-05
1.15916302852e-05
1.09119116333e-05
1.0245874742e-05
9.59229592944e-06
8.95001716382e-06
8.31793626683e-06
7.69499737884e-06
7.08018156621e-06
6.47249746166e-06
5.87097180916e-06
5.27463966629e-06
4.68253363618e-06
4.09367045554e-06
3.50703063881e-06
2.92152067613e-06
2.33589373329e-06
1.74857927638e-06
1.15733966967e-06
5.58683307186e-07
5.54066906336e-08
0.000245668927098
0.000248373564247
0.000248737990843
0.000247248105796
0.000244908904474
0.000242336744043
0.00023982489078
0.00023748102722
0.000235326150934
0.0002333474156
0.000231522183787
0.000229827588466
0.000228243622121
0.000226753621799
0.000225343858785
0.000224002928339
0.000222721189448
0.000221490320976
0.00022030299211
0.000219152624499
0.000218033221585
0.000216939244671
0.000215865520471
0.000214807169396
0.000213759547301
0.000212718195761
0.000211678800384
0.000210637146826
0.000209589079215
0.000208530464283
0.000207457153086
0.000206364941803
0.000205249531165
0.000204106483833
0.000202931178889
0.000201718762526
0.000200464093889
0.000199161684866
0.000197805632497
0.000196389542595
0.000194906443237
0.000193348687074
0.000191707842287
0.000189974573603
0.000188138517869
0.000186188163597
0.000184110751559
0.000181892224031
0.000179517263025
0.000176969470045
0.000174231745778
0.000171286919123
0.000168118643125
0.000164712520514
0.000161057360481
0.000157146435281
0.000152978631382
0.000148559464349
0.000143901975354
0.000139027462213
0.000133965820096
0.000128755111739
0.00012344001824
0.000118069071423
0.00011269095784
0.000107350636314
0.000102086617066
9.6930154032e-05
9.19061866109e-05
8.70352092428e-05
8.23349116962e-05
7.78210354697e-05
7.35074497964e-05
6.94057122795e-05
6.55244142664e-05
6.18685507592e-05
5.84390877392e-05
5.52328502223e-05
5.2242794262e-05
4.9458637773e-05
4.68677350681e-05
4.4456031359e-05
4.22089438715e-05
4.01120688893e-05
3.81516774398e-05
3.63150120622e-05
3.45904241913e-05
3.29673990331e-05
3.14365100247e-05
2.99893351733e-05
2.86183573853e-05
2.73168624801e-05
2.60788425111e-05
2.48989080184e-05
2.37722104303e-05
2.26943744814e-05
2.16614398592e-05
2.06698110175e-05
1.97162140537e-05
1.87976596045e-05
1.79114108312e-05
1.70549556807e-05
1.62259827331e-05
1.54223600506e-05
1.46421165324e-05
1.38834253612e-05
1.31445891862e-05
1.24240267411e-05
1.17202606356e-05
1.10319060927e-05
1.03576604258e-05
9.69629307242e-06
9.04663601115e-06
8.40757439652e-06
7.77803724466e-06
7.15698798283e-06
6.54341462151e-06
5.93631917408e-06
5.33470564398e-06
4.73756522416e-06
4.14385589891e-06
3.55247059141e-06
2.96218190164e-06
2.37154031515e-06
1.77868613594e-06
1.18102325465e-06
5.74732418862e-07
6.17361765039e-08
0.000240034192929
0.000242689892471
0.000243536860214
0.000242781757801
0.000241158459856
0.000239185557626
0.000237152052759
0.000235190718727
0.000233348629352
0.000231632310406
0.00023003186113
0.000228532424685
0.000227119063336
0.000225778492011
0.000224499435816
0.000223272453737
0.000222089605452
0.000220944115764
0.000219830089873
0.000218742289417
0.000217675962793
0.000216626718659
0.00021559043166
0.000214563171276
0.000213541146773
0.000212520663412
0.000211498087019
0.000210469809327
0.000209432214064
0.000208381650831
0.000207314405506
0.000206226669805
0.000205114509112
0.000203973827789
0.000202800331097
0.000201589482763
0.000200336457004
0.000199036083648
0.000197682784684
0.000196270500353
0.000194792602672
0.000193241794287
0.00019160999098
0.000189888187421
0.000188066308445
0.000186133053223
0.00018407574807
0.000181880236328
0.000179530850476
0.000177010529707
0.000174301158762
0.000171384198839
0.000168241645463
0.000164857276622
0.000161218067184
0.000157315593578
0.000153147292409
0.000148717563663
0.000144038810375
0.000139132425417
0.000134029452839
0.000128770378669
0.000123403519285
0.000117981804009
0.000112558226499
0.000107180881409
0.000101889508868
9.67147517656e-05
9.16798850213e-05
8.68036512947e-05
8.21025073241e-05
7.75916331741e-05
7.32848724008e-05
6.91940436449e-05
6.53280331517e-05
6.16919539089e-05
5.82865611567e-05
5.51080682564e-05
5.21484462219e-05
4.93961755509e-05
4.68372945947e-05
4.44565252892e-05
4.2238279639e-05
4.01674290909e-05
3.82298055989e-05
3.64124650327e-05
3.47037721762e-05
3.30933694538e-05
3.15720806932e-05
3.01317863422e-05
2.87652929949e-05
2.74662098749e-05
2.62288381336e-05
2.50480747595e-05
2.3919330698e-05
2.28384617645e-05
2.18017105885e-05
2.08056578287e-05
1.9847181071e-05
1.89234200376e-05
1.80317469647e-05
1.71697412065e-05
1.63351672963e-05
1.55259558391e-05
1.47401867238e-05
1.39760742364e-05
1.32319537259e-05
1.25062695342e-05
1.17975639399e-05
1.11044669037e-05
1.0425686422e-05
9.75999931281e-06
9.10624226054e-06
8.46330294165e-06
7.83011102572e-06
7.20562878929e-06
6.58884096114e-06
5.97874318556e-06
5.374328037e-06
4.77456664784e-06
4.17838234895e-06
3.58460964263e-06
2.99192641974e-06
2.39873891521e-06
1.80298920607e-06
1.20185379401e-06
5.91331904675e-07
7.06029376752e-08
0.000235526719031
0.00023806532704
0.000239193523137
0.000238955362365
0.000237881750447
0.000236395243741
0.000234762475468
0.000233125755671
0.000231549374139
0.000230055215049
0.000228644646102
0.000227310412632
0.000226042540968
0.000224831000421
0.000223666731478
0.000222541905046
0.000221449852917
0.000220384882359
0.00021934207139
0.000218317083818
0.000217306016056
0.000216305275756
0.000215311487791
0.000214321421957
0.000213331937046
0.000212339938361
0.000211342342197
0.000210336044565
0.000209317891154
0.000208284654798
0.000207233010622
0.000206159510519
0.000205060556
0.000203932368502
0.000202770956198
0.000201572076206
0.000200331190904
0.000199043416748
0.000197703463612
0.000196305562247
0.000194843376962
0.000193309900295
0.000191697326368
0.000189996900374
0.00018819874384
0.000186291660191
0.000184262934125
0.000182098153158
0.000179781100966
0.000177293797913
0.000174616786314
0.000171729760566
0.000168612603635
0.000165246798114
0.000161617052905
0.000157712899967
0.00015353006861
0.000149071654899
0.000144349300989
0.000139384508454
0.000134209762064
0.000128868673787
0.000123414348567
0.000117905636585
0.000112401474064
0.000106954365576
0.000101605809558
9.63856587521e-05
9.13150639402e-05
8.64107040927e-05
8.16877826269e-05
7.71611218202e-05
7.28448435626e-05
6.87513264183e-05
6.48899776196e-05
6.12661409479e-05
5.78803313831e-05
5.47279650814e-05
5.17997031601e-05
4.90823737916e-05
4.65602588248e-05
4.42164469369e-05
4.2033999071e-05
3.99967899324e-05
3.80900077132e-05
3.63003699236e-05
3.46161410164e-05
3.30270326391e-05
3.15240479963e-05
3.00993104549e-05
2.87458991324e-05
2.74577022088e-05
2.62292914116e-05
2.5055817195e-05
2.39329223475e-05
2.28566711823e-05
2.18234915216e-05
2.08301269991e-05
1.98735976117e-05
1.89511668416e-05
1.80603140095e-05
1.71987108017e-05
1.63642011409e-05
1.55547837408e-05
1.47685968276e-05
1.40039046079e-05
1.32590851492e-05
1.25326193921e-05
1.18230810641e-05
1.11291272909e-05
1.04494897266e-05
9.78296602906e-06
9.12841150551e-06
8.4847307329e-06
7.85086890679e-06
7.22580258155e-06
6.60852929261e-06
5.99805524396e-06
5.39337969254e-06
4.79347368495e-06
4.19724909838e-06
3.60351107297e-06
3.0108824458e-06
2.41768284686e-06
1.82174011522e-06
1.22011515628e-06
6.08745511583e-07
8.2153939643e-08
0.000231863344525
0.00023426015803
0.000235544706853
0.000235669305114
0.000235016875598
0.000233924951671
0.000232629469689
0.00023127148537
0.000229924914934
0.000228622834023
0.000227375966618
0.00022618394198
0.00022504155476
0.000223941997848
0.000222878397434
0.000221844449043
0.000220834603969
0.000219844047744
0.000218868595279
0.000217904563832
0.00021694865148
0.000215997831721
0.00021504926654
0.000214100236563
0.00021314808541
0.000212190177845
0.000211223863328
0.000210246444244
0.000209255148369
0.000208247106728
0.000207219330741
0.000206168689017
0.000205091882751
0.000203985418772
0.000202845579152
0.000201668386185
0.000200449561291
0.000199184476029
0.000197868092916
0.000196494893126
0.000195058787395
0.000193553005661
0.000191969960429
0.000190301078807
0.000188536599708
0.00018666533698
0.000184674418489
0.00018254902792
0.00018027220249
0.00017782477506
0.00017518558498
0.000172332097791
0.000169241536302
0.000165892505678
0.000162266908531
0.000158351797176
0.000154140869794
0.000149635655306
0.000144846802018
0.000139795805818
0.00013451680809
0.000129057296756
0.000123476516003
0.000117841123808
0.000112218135244
0.000106666136704
0.000101228970114
9.59352602465e-05
9.0803267954e-05
8.58471591445e-05
8.10808803841e-05
7.65191775246e-05
7.21768321004e-05
6.80671306689e-05
6.4200246126e-05
6.05818599462e-05
5.72121848079e-05
5.40855887633e-05
5.1191004032e-05
4.85130865547e-05
4.60338275172e-05
4.37342053636e-05
4.15955477207e-05
3.96004501228e-05
3.77332593974e-05
3.59802197893e-05
3.43294024271e-05
3.27705212864e-05
3.12947076844e-05
2.98942860971e-05
2.85625725392e-05
2.72937031804e-05
2.60824934096e-05
2.49243240951e-05
2.38150506224e-05
2.2750930304e-05
2.17285642864e-05
2.07448507572e-05
1.97969469111e-05
1.88822377027e-05
1.79983098724e-05
1.71429300873e-05
1.63140263153e-05
1.55096717551e-05
1.47280707974e-05
1.39675466094e-05
1.32265300161e-05
1.25035494179e-05
1.17972215221e-05
1.11062427043e-05
1.04293808229e-05
9.76546732378e-06
9.11338945166e-06
8.4720823563e-06
7.84052081159e-06
7.21771014555e-06
6.60267576899e-06
5.99445033381e-06
5.39205694806e-06
4.79448587213e-06
4.20066049094e-06
3.60938584023e-06
3.01926942995e-06
2.42860009995e-06
1.83516845726e-06
1.23601715744e-06
6.27126372401e-07
9.64482702537e-08
0.000228852619874
0.000231102931401
0.000232465544369
0.000232843323042
0.000232512738598
0.000231740173676
0.000230728703195
0.000229611384356
0.000228465836216
0.000227332491132
0.000226229345415
0.000225161939704
0.000224129463523
0.000223128234578
0.000222153560906
0.00022120066556
0.000220265093199
0.000219342844004
0.000218430373159
0.00021752453107
0.000216622483577
0.000215721631408
0.000214819537333
0.000213913863798
0.000213002320875
0.000212082626232
0.000211152469678
0.000210209479371
0.000209251196553
0.000208275052719
0.00020727834734
0.000206258225445
0.00020521165405
0.000204135396383
0.000203025982801
0.000201879677079
0.000200692436514
0.000199459863828
0.000198177148232
0.000196838992232
0.000195439519688
0.000193972159411
0.00019242949738
0.000190803089784
0.000189083229566
0.000187258662437
0.000185316257188
0.00018324065336
0.000181013941034
0.00017861547441
0.000176021975656
0.000173208123056
0.000170147789118
0.000166815944612
0.000163190971306
0.00015925686798
0.000155004877128
0.000150434589988
0.000145555265251
0.000140388081527
0.000134968932595
0.000129349998779
0.000123598283697
0.000117790646321
0.000112005101913
0.000106308653844
0.000100748197322
9.53503143327e-05
9.01291890606e-05
8.50959014434e-05
8.02632180996e-05
7.56462101018e-05
7.12607883034e-05
6.71215268956e-05
6.32395941812e-05
5.96210747355e-05
5.62657475442e-05
5.31665720814e-05
5.03101869052e-05
4.76784000732e-05
4.52502438558e-05
4.30040165758e-05
4.09188811341e-05
3.89758571742e-05
3.71582606918e-05
3.54517475652e-05
3.38441268424e-05
3.23250725571e-05
3.08858160329e-05
2.9518862091e-05
2.82177468828e-05
2.69768404157e-05
2.5791189772e-05
2.4656396423e-05
2.35685207779e-05
2.25240078718e-05
2.15196291874e-05
2.05524366872e-05
1.96197260578e-05
1.87190069201e-05
1.78479783294e-05
1.70045083257e-05