/*--------------------------------*- C++ -*----------------------------------*\
  =========                 |
  \\      /  F ield         | OpenFOAM: The Open Source CFD Toolbox
   \\    /   O peration     | Website:  https://openfoam.org
    \\  /    A nd           | Version:  7
     \\/     M anipulation  |
\*---------------------------------------------------------------------------*/
FoamFile
{
    version     2.0;
    format      ascii;
    class       surfaceScalarField;
    location    "2100";
    object      phi;
}
// * * * * * * * * * * * * * * * * * * * * * * * * * * * * * * * * * * * * * //

dimensions      [0 3 -1 0 0 0 0];

internalField   nonuniform List<scalar> 
16192
(
6.9292393697e-10
2.4457606303e-10
4.93565218482e-10
1.99358716322e-10
3.64825811771e-10
1.28739404624e-10
2.82236026552e-10
8.25897832463e-11
2.27599648855e-10
5.46363757257e-11
1.89973355419e-10
3.76262914816e-11
1.63014685336e-10
2.69586681714e-11
1.43011030313e-10
2.00036531692e-11
1.27728092644e-10
1.52829358812e-11
1.15773395235e-10
1.195469569e-11
1.06246467178e-10
9.52692640673e-12
9.85437488134e-11
7.70271678521e-12
9.22470860597e-11
6.29666124548e-12
8.70581038209e-11
5.1889808062e-12
8.27583573888e-11
4.29974507924e-12
7.91843692059e-11
3.57398691742e-12
7.62115139263e-11
2.97285410873e-12
7.37433187005e-11
2.46819416039e-12
7.17041727318e-11
2.03914501805e-12
7.00342416923e-11
1.66993021736e-12
6.86858443539e-11
1.34839665596e-12
6.76208218538e-11
1.06502197324e-12
6.68085954705e-11
8.12226024918e-13
6.62247116063e-11
5.83883692621e-13
6.58497378649e-11
3.74973770903e-13
6.5668416465e-11
1.81321650648e-13
6.56690090548e-11
-5.92101986252e-16
6.5842785761e-11
-1.73775959446e-13
6.61836231025e-11
-3.40836318832e-13
6.66876857352e-11
-5.04061310779e-13
6.73531729498e-11
-6.65485575879e-13
6.81801136233e-11
-8.26938693564e-13
6.9170196168e-11
-9.90080206052e-13
7.03266217391e-11
-1.15642284882e-12
7.1653969497e-11
-1.32734463542e-12
7.31580626909e-11
-1.5040896474e-12
7.48458234226e-11
-1.68775674682e-12
7.67251027152e-11
-1.87927484845e-12
7.88044706026e-11
-2.07936297422e-12
8.10929490392e-11
-2.28847303961e-12
8.35996683317e-11
-2.50671341021e-12
8.63334264984e-11
-2.7337517949e-12
8.93021306961e-11
-2.96869734853e-12
9.25121021097e-11
-3.20996409923e-12
9.59672311947e-11
-3.45512133699e-12
9.9667980724e-11
-3.70074138225e-12
1.03610250308e-10
-3.94226109407e-12
1.07784138829e-10
-4.17387974827e-12
1.12172669073e-10
-4.38852127095e-12
1.16750569351e-10
-4.5778911903e-12
1.2148323451e-10
-4.73265605767e-12
1.26326007455e-10
-4.84276393594e-12
1.31223925552e-10
-4.89790929436e-12
1.36112060986e-10
-4.8881269493e-12
1.40916551254e-10
-4.80448222058e-12
1.45556370827e-10
-4.63981207622e-12
1.4994584259e-10
-4.38946493118e-12
1.53997828562e-10
-4.05197991245e-12
1.57627467145e-10
-3.62963340127e-12
1.60756232359e-10
-3.12876100073e-12
1.63315984206e-10
-2.559748685e-12
1.65252585525e-10
-1.93659926477e-12
1.66528624743e-10
-1.27603831377e-12
1.67124851916e-10
-5.96227428864e-13
1.67040125618e-10
8.47248892361e-14
1.66289950001e-10
7.50173095073e-13
1.649039833e-10
1.38596311982e-12
1.62923066285e-10
1.98091245475e-12
1.60396315964e-10
2.52674486605e-12
1.57378680699e-10
3.01762901283e-12
1.53929104752e-10
3.44956899338e-12
1.50109224452e-10
3.81987274377e-12
1.45982385736e-10
4.12683065425e-12
1.41612748475e-10
4.36962879269e-12
1.37064299749e-10
4.54843994596e-12
1.32399695042e-10
4.66459571615e-12
1.27678946565e-10
4.72073936622e-12
1.22958056675e-10
4.72088075277e-12
1.18287737226e-10
4.67031036811e-12
1.13712358767e-10
4.57536951076e-12
1.09269241439e-10
4.44310858007e-12
1.04988345149e-10
4.2808878004e-12
1.00892356471e-10
4.09598049441e-12
9.69971187127e-11
3.89522992343e-12
9.33123189563e-11
3.68479229829e-12
8.98423340125e-11
3.46997789015e-12
8.65871426093e-11
3.25518476751e-12
8.35432279199e-11
3.0439084856e-12
8.07044159097e-11
2.83880623929e-12
7.80626163376e-11
2.64179423726e-12
7.56084511135e-11
2.45416031678e-12
7.33317682466e-11
2.27667838179e-12
7.12220483967e-11
2.10971577175e-12
6.92687161786e-11
1.95332853581e-12
6.746137041e-11
1.80734246266e-12
6.57899477676e-11
1.67141969769e-12
6.42448332138e-11
1.54511194826e-12
6.28169290237e-11
1.42790190645e-12
6.14976923194e-11
1.31923471943e-12
6.02791492851e-11
1.21854132973e-12
5.91538925031e-11
1.12525533456e-12
5.81150664829e-11
1.03882481136e-12
5.71563451766e-11
9.58720313449e-13
5.62719043444e-11
8.84440037403e-13
5.54563907623e-11
8.15512964142e-13
5.47048896711e-11
7.51500632779e-13
5.40128912759e-11
6.91998077197e-13
5.33762567026e-11
6.36634379571e-13
5.27911833796e-11
5.85073236303e-13
5.22541694628e-11
5.37013922499e-13
5.17619764897e-11
4.92193056116e-13
5.13115890031e-11
4.50387633835e-13
5.09001692716e-11
4.11419929566e-13
5.05250044542e-11
3.75165054729e-13
5.01834424164e-11
3.41562302679e-13
4.98728107772e-11
3.10631920846e-13
4.95903112761e-11
2.82499789057e-13
4.93328776974e-11
2.57433862272e-13
4.9096979405e-11
2.3589856163e-13
4.88783423516e-11
2.18637297778e-13
4.86715423326e-11
2.06800228888e-13
4.84693964618e-11
2.0214603721e-13
4.82620321783e-11
2.07364401319e-13
4.8035448597e-11
2.26583649636e-13
4.77693500604e-11
2.66098565577e-13
4.74343898355e-11
3.34960235817e-13
4.69913078147e-11
4.43082070345e-13
5.68473586563e-13
9.53409615307e-10
2.28666445668e-10
8.59638239253e-10
2.93130088219e-10
7.45072927803e-10
2.43304712043e-10
6.41859269719e-10
1.8580343738e-10
5.56626025854e-10
1.39869615657e-10
4.88172561819e-10
1.06079751639e-10
4.33478292859e-10
8.16529333411e-11
3.89591590866e-10
6.3890351479e-11
3.54099674373e-10
5.07748488029e-11
3.25146440144e-10
4.0907926464e-11
3.01332650233e-10
3.33407129833e-11
2.81606205845e-10
2.74291579618e-11
2.65171477377e-10
2.27313866328e-11
2.51421030936e-10
1.89394243077e-11
2.39886035291e-10
1.58347379379e-11
2.3020066369e-10
1.32593559017e-11
2.22076542288e-10
1.10969730796e-11
2.15284296632e-10
9.26043759173e-12
2.09640098827e-10
7.6833408261e-12
2.04995752621e-10
6.31427467844e-12
2.0123130181e-10
5.11284599803e-12
1.98249456798e-10
4.04686581946e-12
1.95971346008e-10
3.09033597946e-12
1.94333243996e-10
2.22198523163e-12
1.93284027882e-10
1.42418980442e-12
1.92783182835e-10
6.82167041059e-13
1.92799225406e-10
-1.66338711916e-14
1.93308447079e-10
-6.82996338134e-13
1.94293903369e-10
-1.32629078773e-12
1.95744593036e-10
-1.95474859337e-12
1.97654782588e-10
-2.57567214449e-12
2.00023438272e-10
-3.19559076001e-12
2.02853733223e-10
-3.82037087123e-12
2.06152600537e-10
-4.45528517347e-12
2.09930304213e-10
-5.10504258744e-12
2.1419999966e-10
-5.77377860663e-12
2.18977253922e-10
-6.46500373125e-12
2.24279493385e-10
-7.18150622348e-12
2.30125343752e-10
-7.92520442943e-12
2.36533824132e-10
-8.69694367518e-12
2.4352335489e-10
-9.49623359785e-12
2.51110538752e-10
-1.03209242744e-11
2.59308677835e-10
-1.11668242701e-11
2.6812599807e-10
-1.20272714392e-11
2.77563568752e-10
-1.28926784577e-11
2.8761293121e-10
-1.37500896967e-11
2.98253487977e-10
-1.4582803242e-11
3.09449752534e-10
-1.53701293344e-11
3.21148616647e-10
-1.60873702036e-11
3.33276851391e-10
-1.67061106992e-11
3.4573910895e-10
-1.71948984955e-11
3.58416723084e-10
-1.75203632389e-11
3.71167605152e-10
-1.76487770032e-11
3.8382749353e-10
-1.75480016257e-11
3.96212738746e-10
-1.71897145832e-11
4.08124703647e-10
-1.65517651608e-11
4.19355737307e-10
-1.56204880056e-11
4.29696546427e-10
-1.4392779864e-11
4.38944632164e-10
-1.28777115647e-11
4.46913278375e-10
-1.10974013912e-11
4.53440383728e-10
-9.08685010118e-12
4.58396275326e-10
-6.89248890223e-12
4.6168960401e-10
-4.56936705931e-12
4.63270576198e-10
-2.17720169879e-12
4.63131149057e-10
2.24147979171e-13
4.61302343978e-10
2.57897225098e-12
4.57849379672e-10
4.83891976655e-12
4.52865650497e-10
6.96463239514e-12
4.46466587766e-10
8.92579696177e-12
4.38784179047e-10
1.07000258772e-11
4.29962484173e-10
1.22712509689e-11
4.2015407865e-10
1.36282645004e-11
4.09517103186e-10
1.4763791654e-11
3.98212534017e-10
1.56741829678e-11
3.86401371951e-10
1.6359586653e-11
3.74241610347e-10
1.68243417581e-11
3.61885018954e-10
1.7077315146e-11
3.49473924205e-10
1.71319599855e-11
3.37138248114e-10
1.7005971167e-11
3.24993076883e-10
1.67205257908e-11
3.1313697346e-10
1.62991974945e-11
3.01651148129e-10
1.57666991493e-11
2.90599487315e-10
1.51476279213e-11
2.80029341109e-10
1.44653633964e-11
2.69972902624e-10
1.37412187445e-11
2.60448983072e-10
1.29938861296e-11
2.51464990598e-10
1.22391666751e-11
2.43018948389e-10
1.14899408847e-11
2.35101426646e-10
1.07563189278e-11
2.27697304254e-10
1.00459083261e-11
2.20787312866e-10
9.36414413636e-12
2.14349345641e-10
8.71463875532e-12
2.08359533955e-10
8.09952129809e-12
2.02793109092e-10
7.51974790487e-12
1.97625073343e-10
6.97537334898e-12
1.92830707987e-10
6.46578079248e-12
1.88385945473e-10
5.98987076551e-12
1.84267631301e-10
5.54621291192e-12
1.80453698111e-10
5.13316523474e-12
1.76923271298e-10
4.74896592341e-12
1.73656722158e-10
4.39180267213e-12
1.70635681595e-10
4.0598639547e-12
1.67843024682e-10
3.75137615178e-12
1.65262834106e-10
3.46462984953e-12
1.62880348498e-10
3.19799808357e-12
1.60681900045e-10
2.9499488422e-12
1.5865484433e-10
2.71905375926e-12
1.56787484212e-10
2.50399464941e-12
1.55068988411e-10
2.30356934249e-12
1.53489304578e-10
2.11669818847e-12
1.52039065566e-10
1.94243260397e-12
1.50709486657e-10
1.77996715799e-12
1.49492250328e-10
1.62865693055e-12
1.48379373803e-10
1.48804228808e-12
1.47363053024e-10
1.35788380589e-12
1.46435474739e-10
1.23821092724e-12
1.45588586122e-10
1.1293891065e-12
1.44813808909e-10
1.0322117359e-12
1.44101683064e-10
9.48025010163e-13
1.43441425248e-10
8.78895647021e-13
1.42820394601e-10
8.27831325212e-13
1.42223484639e-10
7.99056362549e-13
1.41632536032e-10
7.98313292694e-13
1.41026068317e-10
8.33051594073e-13
1.40380165365e-10
9.12001732911e-13
1.39672668519e-10
1.04245729696e-12
1.38897074341e-10
1.21867641817e-12
1.37980676513e-12
9.7622178876e-10
1.89944654824e-10
9.629540825e-10
3.0639779023e-10
9.05997550078e-10
3.00261240363e-10
8.33513654138e-10
2.58287329344e-10
7.60498939865e-10
2.12884325981e-10
6.93368410919e-10
1.73210276685e-10
6.34196998975e-10
1.40824341456e-10
5.8309305223e-10
1.14994294479e-10
5.3937675974e-10
9.44911376344e-11
5.02129169905e-10
7.81555127311e-11
4.70430695394e-10
6.50391840182e-11
4.4345288176e-10
5.44069682193e-11
4.20483857274e-10
4.57004078471e-11
4.00925792908e-10
3.84974855176e-11
3.8428209211e-10
3.24784357078e-11
3.7014215684e-10
2.73992882852e-11
3.58166946793e-10
2.30721803986e-11
3.48076439572e-10
1.93509422619e-11
3.39639183383e-10
1.61205946583e-11
3.32663771187e-10
1.32896847364e-11
3.26991951519e-10
1.07846637657e-11
3.22493083367e-10
8.54573233539e-12
3.19059674433e-10
6.52374356368e-12
3.16603784872e-10
4.6778737598e-12
3.15054119745e-10
2.97385423968e-12
3.14353668991e-10
1.38261747584e-12
3.14457782407e-10
-1.20747207578e-13
3.15332589346e-10
-1.55780276434e-12
3.1695368959e-10
-2.94739005867e-12
3.19305058717e-10
-4.30611625133e-12
3.22378116933e-10
-5.64872836754e-12
3.26170917549e-10
-6.98838882492e-12
3.30687415574e-10
-8.33686575811e-12
3.35936779155e-10
-9.7046449974e-12
3.41932706976e-10
-1.11009660067e-11
3.48692713798e-10
-1.25337803518e-11
3.5623734414e-10
-1.40096283034e-11
3.64589271314e-10
-1.55334269104e-11
3.73772235777e-10
-1.71081616808e-11
3.83809774266e-10
-1.87344742166e-11
3.9472368993e-10
-2.04101405862e-11
4.06532215728e-10
-2.21294406789e-11
4.1924783003e-10
-2.38824284907e-11
4.32874697517e-10
-2.56541281973e-11
4.47405732235e-10
-2.74237018608e-11
4.62819315777e-10
-2.91636614103e-11
4.79075753234e-10
-3.08392284566e-11
4.96113612583e-10
-3.24079761331e-11
5.13846165434e-10
-3.38199103238e-11
5.32158220874e-10
-3.5018153363e-11
5.50903706378e-10
-3.59403713247e-11
5.69904385079e-10
-3.65210295119e-11
5.88950091908e-10
-3.66944718087e-11
6.07800813921e-10
-3.63987121678e-11
6.26190834309e-10
-3.55797242118e-11
6.43835018252e-10
-3.41959392089e-11
6.6043715682e-10
-3.22226177048e-11
6.75700109953e-10
-2.96557253073e-11
6.89337293773e-10
-2.65148890318e-11
7.01084832446e-10
-2.28449351839e-11
7.10713454925e-10
-1.87154692966e-11
7.18039023234e-10
-1.42180556063e-11
7.22930530131e-10
-9.46087408316e-12
7.25314597164e-10
-4.56127059207e-12
7.25175975037e-10
3.62766549458e-13
7.22554225447e-10
5.2007166751e-12
7.17537468913e-10
9.85566964135e-12
7.10254517778e-10
1.42475755251e-11
7.00866735882e-10
1.83135696586e-11
6.89560623235e-10
2.2006128295e-11
6.76541564801e-10
2.52902982941e-11
6.62028670704e-10
2.81411467673e-11
6.46250328131e-10
3.05421218196e-11
6.29440013403e-10
3.24844848621e-11
6.11832018233e-10
3.39675687046e-11
5.93656942161e-10
3.49994045713e-11
5.75137016313e-10
3.55972277264e-11
5.56481496736e-10
3.57874664168e-11
5.37882463272e-10
3.5604991715e-11
5.19511368405e-10
3.50916080776e-11
5.01516606865e-10
3.42939468703e-11
4.84022248876e-10
3.3261045466e-11
4.67127934699e-10
3.2041930972e-11
4.5090980132e-10
3.0683486243e-11
4.35422225865e-10
2.92287842917e-11
4.2070013207e-10
2.77159706687e-11
4.06761609653e-10
2.61776804967e-11
3.93610629358e-10
2.46409132538e-11
3.81239684247e-10
2.31272567752e-11
3.69632239268e-10
2.16533466996e-11
3.58764917833e-10
2.02314596057e-11
3.48609392513e-10
1.88701587318e-11
3.39133975276e-10
1.75749337894e-11
3.30304921996e-10
1.63487970124e-11
3.22087477454e-10
1.51928142621e-11
3.14446692773e-10
1.41065623596e-11
3.07348048734e-10
1.30885121726e-11
3.00757917296e-10
1.2136342169e-11
2.94643890857e-10
1.12471899096e-11
2.88975005297e-10
1.04178501044e-11
2.83721879019e-10
9.64492792139e-12
2.78856786555e-10
8.92495571051e-12
2.74353681827e-10
8.25448045636e-12
2.7018818318e-10
7.63012833028e-12
2.66337529542e-10
7.04865178008e-12
2.62780514871e-10
6.50696376794e-12
2.59497405994e-10
6.00216305864e-12
2.56469847298e-10
5.53155391037e-12
2.53680754207e-10
5.0926631151e-12
2.51114196082e-10
4.68325708896e-12
2.48755267917e-10
4.30136161492e-12
2.46589949079e-10
3.94528689098e-12
2.44604946199e-10
3.61366073645e-12
2.42787516287e-10
3.30547313838e-12
2.41125265262e-10
3.02013576254e-12
2.39605916584e-10
2.75756051354e-12
2.38217045021e-10
2.51826153901e-12
2.36945772796e-10
2.30348477336e-12
2.357784313e-10
2.11536724821e-12
2.34700204904e-10
1.95712269781e-12
2.33694801397e-10
1.83323539e-12
2.32744249528e-10
1.74960868921e-12
2.31829033065e-10
1.71353011955e-12
2.30928976006e-10
1.73310895078e-12
2.30025646493e-10
1.81533154272e-12
2.29107588917e-10
1.96051517292e-12
2.28178758612e-10
2.14750699475e-12
2.29821502269e-12
9.71744748555e-10
1.55699904169e-10
9.86584933668e-10
2.91557600655e-10
9.6795348851e-10
3.18892681229e-10
9.27468848596e-10
2.98771965058e-10
8.76989524619e-10
2.63363645764e-10
8.24043192807e-10
2.26156604332e-10
7.72785628851e-10
1.92081901293e-10
7.25255381117e-10
1.62524538148e-10
6.82270741605e-10
1.37475773138e-10
6.43986313408e-10
1.16439936975e-10
6.10218746543e-10
9.880674699e-11
5.80630507216e-10
8.39952037165e-11
5.54830174568e-10
7.15007367357e-11
5.32424950425e-10
6.09027059802e-11
5.13046378757e-10
5.18570037848e-11
4.96361370899e-10
4.40842926552e-11
4.82075402236e-10
3.73581456891e-11
4.69931726041e-10
3.14946152138e-11
4.59708726118e-10
2.63435914863e-11
4.51216554359e-10
2.17818535626e-11
4.44293652076e-10
1.77075632984e-11
4.38803450097e-10
1.40359317657e-11
4.34631376539e-10
1.06958147931e-11
4.31682212382e-10
7.62703583132e-12
4.29877789278e-10
4.77827552138e-12
4.29155002088e-10
2.1054031309e-12
4.29464099258e-10
-4.29845601792e-13
4.30767209989e-10
-2.86091438578e-12
4.330370687e-10
-5.21724930291e-12
4.36255902366e-10
-7.52495006644e-12
4.40414441362e-10
-9.80726710535e-12
4.4551101829e-10
-1.20849650633e-11
4.51550719421e-10
-1.4376565743e-11
4.58544552706e-10
-1.66984766583e-11
4.66508594716e-10
-1.90650058915e-11
4.75463076426e-10
-2.14882594139e-11
4.85431364687e-10
-2.39779133768e-11
4.96438792816e-10
-2.65408512938e-11
5.08511290424e-10
-2.91806549748e-11
5.21673760338e-10
-3.1896939238e-11
5.35948150112e-10
-3.46845248894e-11
5.51351169011e-10
-3.75324535306e-11
5.67891610162e-10
-4.04228630343e-11
5.85567254633e-10
-4.33297655232e-11
6.04361361882e-10
-4.6217801463e-11
6.24238792308e-10
-4.90410837352e-11
6.45141863973e-10
-5.17422916258e-11
6.66986116848e-10
-5.42522201907e-11
6.89656240185e-10
-5.64900246024e-11
7.13002502964e-10
-5.83644069321e-11
7.36838099273e-10
-5.97759583689e-11
7.60937861054e-10
-6.0620782071e-11
7.85038781174e-10
-6.0795382853e-11
8.08842718945e-10
-6.02026411149e-11
8.32021530696e-10
-5.87585275046e-11
8.54224697968e-10
-5.63990985093e-11
8.75089338724e-10
-5.30872511111e-11
8.94252294281e-10
-4.88186742803e-11
9.11363774616e-10
-4.3626363704e-11
9.26101795436e-10
-3.75829514116e-11
9.38186356805e-10
-3.08000272843e-11
9.47392062819e-10
-2.34237595629e-11
9.53557789695e-10
-1.56266002975e-11
9.56592206311e-10
-7.59568797194e-12
9.56474498477e-10
4.80472219112e-13
9.53250474938e-10
8.42473671594e-12
9.47025118805e-10
1.60810210528e-11
9.37953209239e-10
2.33194792794e-11
9.26229662797e-10
3.0037109343e-11
9.12080782049e-10
3.61550014792e-11
8.95756885103e-10
4.16141870011e-11
8.7752616993e-10
4.63718531481e-11
8.57669328466e-10
5.03989540539e-11
8.36474376764e-10
5.36794270112e-11
8.14231318429e-10
5.62106172728e-11
7.91226501007e-10
5.80042121261e-11
7.67736773062e-10
5.90869458098e-11
7.44023745794e-10
5.95004839309e-11
7.20328570323e-10
5.93001576317e-11
6.96867644164e-10
5.85525249637e-11
6.7382956642e-10
5.73320156904e-11
6.51373504073e-10
5.57170992957e-11
6.29628957409e-10
5.37864695692e-11
6.08696763504e-10
5.16156725684e-11
5.88651078514e-10
4.92744622147e-11
5.69542038677e-10
4.68250039695e-11
5.51398807469e-10
4.43209057073e-11
5.34232756379e-10
4.18069588894e-11
5.18040582553e-10
3.9319425683e-11
5.02807225183e-10
3.68866996813e-11
4.88508495325e-10
3.45301855901e-11
4.75113376974e-10
3.22652737062e-11
4.62585989338e-10
3.01023185276e-11
4.50887222373e-10
2.80475615351e-11
4.3997607137e-10
2.61039632535e-11
4.2981070365e-10
2.42719284744e-11
4.20349293085e-10
2.25499215122e-11
4.11550657757e-10
2.09349766242e-11
4.03374733709e-10
1.94231134092e-11
3.95782914385e-10
1.8009669176e-11
3.88738281537e-10
1.66895607863e-11
3.82205749514e-10
1.54574879915e-11
3.76152141194e-10
1.43080892465e-11
3.70546210456e-10
1.3236059727e-11
3.65358623081e-10
1.22362399748e-11
3.60561905405e-10
1.13036823988e-11
3.56130367731e-10
1.04337018004e-11
3.52040007564e-10
9.6219152355e-12
3.48268396054e-10
8.86427585005e-12
3.44794549563e-10
8.15710485348e-12
3.41598786989e-10
7.49712549059e-12
3.38662572461e-10
6.88150273115e-12
3.35968342142e-10
6.3078923632e-12
3.33499313371e-10
5.77450319505e-12
3.31239274378e-10
5.28017600528e-12
3.29172353589e-10
4.82448250268e-12
3.27282769853e-10
4.40784641162e-12
3.25554569657e-10
4.03168602913e-12
3.23971366345e-10
3.69857153183e-12
3.22516112259e-10
3.41237765529e-12
3.21170961923e-10
3.17838649148e-12
3.19917328921e-10
3.00324235032e-12
3.18736307905e-10
2.89455169978e-12
3.17609724879e-10
2.85969246896e-12
3.16522151143e-10
2.90290571025e-12
3.15463953792e-10
3.01871289684e-12
3.14433512418e-10
3.17794865245e-12
3.30335493285e-12
9.63922487319e-10
1.29277414538e-10
9.87610234783e-10
2.67869848414e-10
9.89589266445e-10
3.16913644961e-10
9.7194641377e-10
3.16414813256e-10
9.41628090004e-10
2.93681965063e-10
9.04680669149e-10
2.63104020741e-10
8.65299024894e-10
2.31463541135e-10
8.261305507e-10
2.01693007964e-10
7.8873172823e-10
1.74874591267e-10
7.53941746004e-10
1.51229914894e-10
7.22147123288e-10
1.30601365435e-10
6.93458539791e-10
1.12683782982e-10
6.67825390331e-10
9.7133882011e-11
6.45108449914e-10
8.36196422663e-11
6.25125124453e-10
7.18403251788e-11
6.07677059556e-10
6.15323535601e-11
5.92566534432e-10
5.24686669059e-11
5.79605803469e-10
4.4455342371e-11
5.68622054619e-10
3.73273366423e-11
5.59459683706e-10
3.09442209097e-11
5.51980959297e-10
2.51862842845e-11
5.46065753302e-10
1.99511344979e-11
5.41610757699e-10
1.51508073086e-11
5.38528445825e-10
1.07093448136e-11
5.36745933757e-10
6.56078490942e-12
5.36203832108e-10
2.64750233254e-12
5.36855137136e-10
-1.08115282474e-12
5.38664180495e-10
-4.66995966833e-12
5.41605646032e-10
-8.15871647062e-12
5.45663650095e-10
-1.15829554473e-11
5.50830867743e-10
-1.49744857364e-11
5.57107685942e-10
-1.83617838917e-11
5.64501359773e-10
-2.17702398272e-11
5.73025143229e-10
-2.52222599729e-11
5.82697361984e-10
-2.87372240899e-11
5.9354039115e-10
-3.23312875903e-11
6.05579496694e-10
-3.60170174794e-11
6.18841494866e-10
-3.98028475574e-11
6.3335318026e-10
-4.3692337979e-11
6.49139470555e-10
-4.76832266517e-11
6.66221215725e-10
-5.17662666774e-11
6.84612622951e-10
-5.59238568724e-11
7.04318257735e-10
-6.01284934376e-11
7.25329599223e-10
-6.43411021429e-11
7.4762115651e-10
-6.85093534176e-11
7.71146195822e-10
-7.25661172785e-11
7.95832188144e-10
-7.64282777845e-11
8.21576163845e-10
-7.9996189382e-11
8.48240251629e-10
-8.31541055886e-11
8.75647774929e-10
-8.57719232083e-11
9.03580363243e-10
-8.77085395012e-11
9.31776586447e-10
-8.88169980042e-11
9.59932612706e-10
-8.89514018256e-11
9.87705309562e-10
-8.79753307483e-11
1.01471805615e-09
-8.57712670179e-11
1.04056933803e-09
-8.22503735737e-11
1.06484399087e-09
-7.73618975026e-11
1.08712676327e-09
-7.11014407429e-11
1.10701766234e-09
-6.35172575021e-11
1.12414828062e-09
-5.47135652624e-11
1.1381979645e-09
-4.48497077107e-11
1.14890834483e-09
-3.41341375533e-11
1.15609457535e-09
-2.28128296868e-11
1.15965179553e-09
-1.11529082571e-11
1.15955595796e-09
5.76308452781e-13
1.15585917861e-09
1.21215135829e-11
1.14868090462e-09
2.32592915008e-11
1.13819693544e-09
3.38034440094e-11
1.12462834924e-09
4.36056903041e-11
1.1082317316e-09
5.2551613223e-11
1.08929115571e-09
6.05547564497e-11
1.06811160126e-09
6.75514007108e-11
1.04501313991e-09
7.34974081606e-11
1.02032522277e-09
7.83673366445e-11
9.94380632869e-10
8.21551994886e-11
9.67508973024e-10
8.48758642136e-11
9.40029852838e-10
8.65660582541e-11
9.12246162519e-10
8.72841666142e-11
8.84437938588e-10
8.71083741148e-11
8.56857319416e-10
8.61331369477e-11
8.29724966442e-10
8.44643617942e-11
8.03228131752e-10
8.22139274854e-11
7.77520342593e-10
7.94942526352e-11
7.52722500233e-10
7.64135092718e-11
7.2892508307e-10
7.30718741797e-11
7.06191105743e-10
6.95589765677e-11
6.84559503087e-10
6.59525041087e-11
6.64048659031e-10
6.23177991657e-11
6.44659866354e-10
5.87082150474e-11
6.26380569146e-10
5.51659940319e-11
6.09187297446e-10
5.17234548746e-11
5.93048249371e-10
4.84043197899e-11
5.77925509744e-10
4.52250565667e-11
5.63776917116e-10
4.21961529574e-11
5.50557605271e-10
3.9323274254e-11
5.3822125293e-10
3.66082803083e-11
5.26721078339e-10
3.4050095908e-11
5.16010615251e-10
3.1645439805e-11
5.06044304693e-10
2.93894243217e-11
4.9677793373e-10
2.72760407317e-11
4.88168948699e-10
2.52985466217e-11
4.80176666618e-10
2.34497710644e-11
4.72762404756e-10
2.17223522635e-11
4.65889544976e-10
2.01089208e-11
4.59523546388e-10
1.86022399718e-11
4.53631917125e-10
1.71953131642e-11
4.48184153717e-10
1.58814667825e-11
4.4315165448e-10
1.46544160967e-11
4.3850761161e-10
1.35083203773e-11
4.34226885179e-10
1.24378329545e-11
4.30285861071e-10
1.14381512665e-11
4.26662293903e-10
1.05050715476e-11
4.23335135429e-10
9.63505245277e-12
4.20284348674e-10
8.82529151735e-12
4.17490708494e-10
8.07381769346e-12
4.14935590482e-10
7.37960194969e-12
4.12600752799e-10
6.74268544694e-12
4.10468120049e-10
6.1643200369e-12
4.08519585929e-10
5.64710680329e-12
4.06736863122e-10
5.19510150064e-12
4.05101426219e-10
4.81382431433e-12
4.03594616804e-10
4.51005256758e-12
4.02198005058e-10
4.29116414306e-12
4.0089410861e-10
4.16358953311e-12
3.99667472169e-10
4.1295426951e-12
3.98505614306e-10
4.18057119798e-12
3.97397544431e-10
4.28601882872e-12
4.37675854575e-12
9.57526141322e-10
1.09251270772e-10
9.82462135181e-10
2.42933849538e-10
9.94854500844e-10
3.04521274489e-10
9.91964698915e-10
3.19304610493e-10
9.76943975442e-10
3.08702683857e-10
9.53898419089e-10
2.8614957244e-10
9.26283238847e-10
2.59078716755e-10
8.96634388787e-10
2.31341853433e-10
8.66691830512e-10
2.04817144976e-10
8.37592601077e-10
1.80329139785e-10
8.10042891974e-10
1.58151070014e-10
7.8445109831e-10
1.38275572147e-10
7.61024899854e-10
1.20560075995e-10
7.3984003841e-10
1.04804499275e-10
7.20888173077e-10
9.07921861194e-11
7.04109737967e-10
7.83107843331e-11
6.89416235629e-10
6.71621649701e-11
6.76705172718e-10
5.71664010851e-11
6.65869913569e-10
4.81625916822e-11
6.56806048082e-10
4.00080823895e-11
6.49415385011e-10
3.25769434632e-11
6.43608339586e-10
2.57581761598e-11
6.39305244963e-10
1.94538983133e-11
6.36436950297e-10
1.35776360218e-11
6.34944952417e-10
8.05277950899e-12
6.34781227626e-10
2.81122403844e-12
6.35907874433e-10
-2.20780250419e-12
6.38296633299e-10
-7.05872117569e-12
6.41928335645e-10
-1.17904212082e-11
6.46792303794e-10
-1.64469257173e-11
6.52885707678e-10
-2.1067891453e-11
6.6021287724e-10
-2.56889549768e-11
6.6878455993e-10
-3.03419237111e-11
6.78617105076e-10
-3.50548059637e-11
6.89731550207e-10
-3.98516696961e-11
7.02152578258e-10
-4.47523157258e-11
7.15907308816e-10
-4.97717477133e-11
7.3102388124e-10
-5.49194192262e-11
7.47529782811e-10
-6.0198238349e-11
7.65449871787e-10
-6.56033139608e-11
7.84804043987e-10
-7.11204367331e-11
8.05604494053e-10
-7.67243043043e-11
8.2785253041e-10
-8.23765266688e-11
8.51534919133e-10
-8.80234872475e-11
8.76619759357e-10
-9.35941895446e-11
9.03051935556e-10
-9.89982889209e-11
9.30748253059e-10
-1.04124590303e-10
9.59592444806e-10
-1.08840375755e-10
9.8943033743e-10
-1.129919925e-10
1.02006557498e-09
-1.16407154757e-10
1.05125640095e-09
-1.1889935925e-10
1.0827140667e-09
-1.20274657361e-10
1.11410343475e-09
-1.20340763374e-10
1.1450462566e-09
-1.18918146049e-10
1.17512742798e-09
-1.15852431872e-10
1.20390429707e-09
-1.11027236256e-10
1.2309188781e-09
-1.04376472355e-10
1.2557126353e-09
-9.58951921267e-11
1.27784331658e-09
-8.56479335087e-11
1.29690304537e-09
-7.3773289495e-11
1.31253646801e-09
-6.04831267095e-11
1.32445728277e-09
-4.60549497277e-11
1.33246116583e-09
-3.08167113354e-11
1.33643322257e-09
-1.51249648098e-11
1.33634879758e-09
6.6073241604e-13
1.33226775224e-09
1.62025567733e-11
1.32432382376e-09
3.12032168381e-11
1.31271169134e-09
4.54155724481e-11
1.29767437029e-09
5.86430066975e-11
1.27949258858e-09
7.07333897202e-11
1.25847649804e-09
8.15708413353e-11
1.2349591176e-09
9.10687751423e-11
1.20929054563e-09
9.9165973837e-11
1.18183208624e-09
1.05825789539e-10
1.15294977706e-09
1.11037502039e-10
1.12300720243e-09
1.14818432166e-10
1.09235782752e-09
1.17215426527e-10
1.06133734862e-09
1.18304638996e-10
1.03025668673e-09
1.18189029684e-10
9.99396231911e-10
1.16993585717e-10
9.69001785473e-10
1.14858802504e-10
9.39282400091e-10
1.11933307509e-10
9.10410060672e-10
1.08366587099e-10
8.8252094666e-10
1.04302618758e-10
8.55717901057e-10
9.98749157035e-11
8.30073701505e-10
9.52031724958e-11
8.05634761735e-10
9.03914407111e-11
7.82424959609e-10
8.55275985747e-11
7.60449366993e-10
8.06838053858e-11
7.39697731228e-10
7.59176279449e-11
7.2014762012e-10
7.12735645367e-11
7.01767189854e-10
6.67847489977e-11
6.84517568846e-10
6.24746768798e-11
6.68354872734e-10
5.83588487183e-11
6.5323187891e-10
5.44462680453e-11
6.39099395907e-10
5.07407635734e-11
6.25907365298e-10
4.72421270488e-11
6.13605733321e-10
4.39470725621e-11
6.02145127155e-10
4.08500314888e-11
5.91477367606e-10
3.79438014794e-11
5.81555846245e-10
3.52200693556e-11
5.72335791356e-10
3.26698274778e-11
5.63774443431e-10
3.02837018388e-11
5.55831157638e-10
2.80522083484e-11
5.48467447631e-10
2.59659518167e-11
5.41646982454e-10
2.40157802422e-11
5.35335545907e-10
2.21929052729e-11
5.2950096577e-10
2.04889981997e-11
5.24113018546e-10
1.88962695725e-11
5.19143313967e-10
1.74075394942e-11
5.14565162362e-10
1.60163048056e-11
5.10353427135e-10
1.47168086678e-11
5.06484364055e-10
1.35041173723e-11
5.02935448923e-10
1.23742084219e-11
4.99685195548e-10
1.13240727632e-11
4.96712966978e-10
1.03518321263e-11
4.93998784888e-10
9.456869044e-12
4.91523145175e-10
8.63996114855e-12
4.89266852477e-10
7.90340078175e-12
4.87210892755e-10
7.25106237762e-12
4.85336370693e-10
6.68834740031e-12
4.83624544958e-10
6.22187919774e-12
4.82056990109e-10
5.85871976747e-12
4.80615870731e-10
5.604709581e-12
4.79284147964e-10
5.46126603254e-12
4.78045032622e-10
5.41968698684e-12
4.76878844848e-10
5.45220689893e-12
5.50130577626e-12
9.52903715351e-10
9.38475528177e-11
9.76388841042e-10
2.19448718635e-10
9.9360637978e-10
2.87303730763e-10
9.9984905016e-10
3.13061935279e-10
9.9575023233e-10
3.12801496882e-10
9.83722538669e-10
2.98177261328e-10
9.6630975232e-10
2.76491498365e-10
9.45644846295e-10
2.52006754749e-10
9.23358448733e-10
2.27103537851e-10
9.0063601592e-10
2.03051567926e-10
8.78308796016e-10
1.80478285258e-10
8.56939997523e-10
1.59644365993e-10
8.36895799599e-10
1.4060426929e-10
8.18400564222e-10
1.23299730047e-10
8.01578517312e-10
1.07614228457e-10
7.86484672368e-10
9.3404624744e-11
7.73127500864e-10
8.05193319921e-11
7.61485393833e-10
6.88085036955e-11
7.51518509228e-10
5.81294719381e-11
7.43177218803e-10
4.83493685489e-11
7.36408064933e-10
3.93460931655e-11
7.31157903621e-10
3.1008333413e-11
7.27376732376e-10
2.32350656239e-11
7.25019568399e-10
1.59347962027e-11
7.24047643288e-10
9.02470097866e-12
7.24429106624e-10
2.42975723312e-12
7.26139376404e-10
-3.91807556629e-12
7.29161226622e-10
-1.00805744688e-11
7.3348469324e-10
-1.61138906765e-11
7.39106832857e-10
-2.20690679419e-11
7.46031359302e-10
-2.79924202415e-11
7.54268170904e-10
-3.392576864e-11
7.63832769321e-10
-3.9906523884e-11
7.74745561109e-10
-4.59675991822e-11
7.87031024901e-10
-5.21371345725e-11
8.00716719512e-10
-5.84380110508e-11
8.15832101336e-10
-6.48871298593e-11
8.32407113019e-10
-7.14944308162e-11
8.50470499621e-10
-7.82616244198e-11
8.70047803878e-10
-8.51806172263e-11
8.91158989408e-10
-9.22316207924e-11
9.13815641076e-10
-9.93809540053e-11
9.38017697071e-10
-1.0657858019e-10
9.63749680329e-10
-1.13755467519e-10
9.90976421311e-10
-1.20820927034e-10
1.01963830444e-09
-1.27660168068e-10
1.04964613159e-09
-1.34132412997e-10