/*--------------------------------*- C++ -*----------------------------------*\
  =========                 |
  \\      /  F ield         | OpenFOAM: The Open Source CFD Toolbox
   \\    /   O peration     | Website:  https://openfoam.org
    \\  /    A nd           | Version:  7
     \\/     M anipulation  |
\*---------------------------------------------------------------------------*/
FoamFile
{
    version     2.0;
    format      ascii;
    class       volVectorField;
    location    "2100";
    object      U;
}
// * * * * * * * * * * * * * * * * * * * * * * * * * * * * * * * * * * * * * //

dimensions      [0 1 -1 0 0 0 0];

internalField   nonuniform List<vector> 
8192
(
(0.00104347131966 0.000156528680339 0)
(0.000759353059489 0.000127589578446 0)
(0.000549370259362 8.23932189597e-05 0)
(0.000414119576527 5.28574612776e-05 0)
(0.000326294832261 3.49672804645e-05 0)
(0.000267246722736 2.40808265482e-05 0)
(0.000225912346083 1.72535476297e-05 0)
(0.000195856458015 1.28023380283e-05 0)
(0.000173273038692 9.78107896394e-06 0)
(0.000155840952242 7.65100524162e-06 0)
(0.000142092711944 6.09723290031e-06 0)
(0.000131065738235 4.92973874253e-06 0)
(0.000122106134319 4.02986319711e-06 0)
(0.000114755321524 3.32094771597e-06 0)
(0.000108682535174 2.75183685072e-06 0)
(0.000103643345021 2.28735162715e-06 0)
(9.94533652046e-05 1.90262662959e-06 0)
(9.59710928811e-05 1.57964426265e-06 0)
(9.30863945167e-05 1.30505281155e-06 0)
(9.07125852315e-05 1.06875533911e-06 0)
(8.87808550696e-05 8.62973859817e-07 0)
(8.72362663729e-05 6.81614062872e-07 0)
(8.60348270876e-05 5.19824655948e-07 0)
(8.51413165292e-05 3.73685563277e-07 0)
(8.45276476615e-05 2.39983213378e-07 0)
(8.41716187711e-05 1.16045856415e-07 0)
(8.40559523326e-05 -3.78945271201e-10 0)
(8.41675486821e-05 -1.11216614045e-07 0)
(8.44969016726e-05 -2.18135244053e-07 0)
(8.50376376561e-05 -3.22599238899e-07 0)
(8.57861495584e-05 -4.25910768563e-07 0)
(8.67413034067e-05 -5.29240763881e-07 0)
(8.79041982664e-05 -6.33651331874e-07 0)
(8.92779634606e-05 -7.40110623243e-07 0)
(9.08675783911e-05 -8.49500566671e-07 0)
(9.26797006002e-05 -9.62617374337e-07 0)
(9.47224871126e-05 -1.08016431797e-06 0)
(9.70053927282e-05 -1.20273590301e-06 0)
(9.95389269234e-05 -1.3307923035e-06 0)
(0.000102334348571 -1.46462274535e-06 0)
(0.000105403275117 -1.60429658253e-06 0)
(0.000108757180691 -1.74960114874e-06 0)
(0.000112406756605 -1.89996630306e-06 0)
(0.000116361108996 -2.05437702351e-06 0)
(0.000120626773315 -2.21127765567e-06 0)
(0.000125206535628 -2.36847448464e-06 0)
(0.000130098067861 -2.5230471002e-06 0)
(0.000135292409048 -2.67128303889e-06 0)
(0.000140772357057 -2.80865361341e-06 0)
(0.000146510872591 -2.92985036179e-06 0)
(0.000152469634471 -3.02889987691e-06 0)
(0.000158597914857 -3.099368919e-06 0)
(0.000164831957125 -3.13466194839e-06 0)
(0.000171095031384 -3.12840124755e-06 0)
(0.000177298311833 -3.07486862117e-06 0)
(0.000183342670132 -2.96947972878e-06 0)
(0.000189121416587 -2.80925755595e-06 0)
(0.000194523949538 -2.59326714396e-06 0)
(0.000199440189253 -2.32296537681e-06 0)
(0.000203765567682 -2.00240704046e-06 0)
(0.000207406218601 -1.6382391584e-06 0)
(0.000210283884628 -1.23942352945e-06 0)
(0.000212339974572 -8.16664520812e-07 0)
(0.000213538225062 -3.81585554473e-07 0)
(0.000213865585622 5.42239291111e-08 0)
(0.000213331248396 4.80110780847e-07 0)
(0.000211964117313 8.87016396685e-07 0)
(0.000209809311734 1.26778397104e-06 0)
(0.000206924404639 1.61711671427e-06 0)
(0.000203375997864 1.93128256821e-06 0)
(0.000199236982689 2.20772415576e-06 0)
(0.000194584530691 2.44471855601e-06 0)
(0.00018949863052 2.64117161872e-06 0)
(0.000184060885895 2.79656242732e-06 0)
(0.000178353310863 2.91100156542e-06 0)
(0.000172456956666 2.98534125833e-06 0)
(0.000166450330628 3.02127319438e-06 0)
(0.000160407682074 3.02136368177e-06 0)
(0.000154397308097 2.98899863559e-06 0)
(0.000148480061436 2.92823648689e-06 0)
(0.000142708224132 2.84358949125e-06 0)
(0.000137124855416 2.73976819225e-06 0)
(0.000131763649037 2.62142751642e-06 0)
(0.000126649264118 2.492947151e-06 0)
(0.000121798040108 2.3582670709e-06 0)
(0.0001172189779 2.2207858497e-06 0)
(0.000112914865038 2.08331825121e-06 0)
(0.000108883437139 1.94810143078e-06 0)
(0.000105118492051 1.81683599314e-06 0)
(0.000101610900638 1.69074831185e-06 0)
(9.83494831687e-05 1.57066260274e-06 0)
(9.53217403904e-05 1.45707416435e-06 0)
(9.25144426517e-05 1.35021809392e-06 0)
(8.99140893282e-05 1.25013026292e-06 0)
(8.75072554167e-05 1.15669917611e-06 0)
(8.52808436336e-05 1.06970860652e-06 0)
(8.32222598281e-05 9.88871646885e-07 0)
(8.1319527832e-05 9.13857220128e-07 0)
(7.95613576596e-05 8.44310220437e-07 0)
(7.79371786269e-05 7.79866451028e-07 0)
(7.64371467445e-05 7.20163414121e-07 0)
(7.5052133751e-05 6.64847879269e-07 0)
(7.37737034621e-05 6.13581000607e-07 0)
(7.25940796934e-05 5.66041623938e-07 0)
(7.15061088682e-05 5.21928297051e-07 0)
(7.05032194773e-05 4.80960404978e-07 0)
(6.95793798061e-05 4.42878769406e-07 0)
(6.87290547062e-05 4.07446002925e-07 0)
(6.79471616526e-05 3.74446871234e-07 0)
(6.72290258192e-05 3.43688910399e-07 0)
(6.65703334097e-05 3.15003555914e-07 0)
(6.59670819154e-05 2.88248085654e-07 0)
(6.54155252958e-05 2.63308754922e-07 0)
(6.49121111845e-05 2.40105635027e-07 0)
(6.44534059971e-05 2.18599873714e-07 0)
(6.40360020439e-05 1.98804429341e-07 0)
(6.36563981141e-05 1.80799864997e-07 0)
(6.3310840943e-05 1.64757671854e-07 0)
(6.29951085456e-05 1.50975079444e-07 0)
(6.27042059242e-05 1.39927870578e-07 0)
(6.24319261978e-05 1.32352146488e-07 0)
(6.21702008284e-05 1.29373463814e-07 0)
(6.19081143297e-05 1.32713216844e-07 0)
(6.16303876962e-05 1.45013535767e-07 0)
(6.13150711407e-05 1.70303081969e-07 0)
(6.09303935334e-05 2.14374550923e-07 0)
(6.04324464961e-05 2.83572525021e-07 0)
(5.97850509568e-05 3.638230954e-07 0)
(0.0012101821538 0.000302875205567 0)
(0.00116035062692 0.000315192834906 0)
(0.00102701514692 0.000238108234667 0)
(0.000887636606414 0.000171771661201 0)
(0.000767030589167 0.000124483834485 0)
(0.00066867109611 9.19718675972e-05 0)
(0.000589856546994 6.9511424968e-05 0)
(0.000526764725584 5.36921629748e-05 0)
(0.000475962409753 4.22769821978e-05 0)
(0.000434717513291 3.38320781786e-05 0)
(0.000400946617841 2.74352892096e-05 0)
(0.000373080867889 2.24843998381e-05 0)
(0.000349937717262 1.85779506421e-05 0)
(0.00033061920532 1.54421792729e-05 0)
(0.000314436522385 1.2886069131e-05 0)
(0.000300855487348 1.07733394042e-05 0)
(0.000289457411826 9.00468940051e-06 0)
(0.000279910936909 7.50632432136e-06 0)
(0.000271951613094 6.22239094025e-06 0)
(0.000265366944927 5.10989113331e-06 0)
(0.000259985314836 4.13519529856e-06 0)
(0.000255667685509 3.27160818733e-06 0)
(0.000252301313796 2.4976396828e-06 0)
(0.000249794937603 1.79575611152e-06 0)
(0.000248075054002 1.15146468821e-06 0)
(0.000247083014859 5.52632762693e-07 0)
(0.000246772741274 -1.10246228339e-08 0)
(0.00024710891039 -5.48334270451e-07 0)
(0.000248065504286 -1.0669613482e-06 0)
(0.000249624637699 -1.57363833865e-06 0)
(0.000251775600399 -2.07434094104e-06 0)
(0.00025451406135 -2.57441885029e-06 0)
(0.000257841389757 -3.07868868946e-06 0)
(0.000261764053607 -3.59149313426e-06 0)
(0.00026629305904 -4.11672782263e-06 0)
(0.000271443394479 -4.65783568258e-06 0)
(0.000277233442292 -5.21776670596e-06 0)
(0.000283684318276 -5.79889988604e-06 0)
(0.000290819095768 -6.40292313834e-06 0)
(0.000298661867446 -7.03066669746e-06 0)
(0.000307236594574 -7.68188608515e-06 0)
(0.000316565691931 -8.35499268436e-06 0)
(0.000326668298616 -9.04673383594e-06 0)
(0.000337558192579 -9.75183074461e-06 0)
(0.000349241322767 -1.04625918686e-05 0)
(0.000361712959976 -1.11685318905e-05 0)
(0.00037495450828 -1.18560411751e-05 0)
(0.000388930073927 -1.25081658129e-05 0)
(0.000403582956276 -1.31045705437e-05 0)
(0.000418832299545 -1.36217612093e-05 0)
(0.000434570214618 -1.4033634914e-05 0)
(0.000450659732502 -1.43124013919e-05 0)
(0.000466933970071 -1.44298792305e-05 0)
(0.000483196863157 -1.4359122288e-05 0)
(0.000499225748657 -1.40762859544e-05 0)
(0.000514775963132 -1.35626094317e-05 0)
(0.00052958748221 -1.28063698795e-05 0)
(0.00054339346159 -1.18046462569e-05 0)
(0.000555930354298 -1.05647007782e-05 0)
(0.000566949062745 -9.10474393083e-06 0)
(0.000576226343746 -7.45382322316e-06 0)
(0.000583575461795 -5.65061642688e-06 0)
(0.000588854962775 -3.74105943877e-06 0)
(0.000591974515333 -1.7749946417e-06 0)
(0.000592897104163 1.9767863578e-07 0)
(0.000591637435542 2.13065302147e-06 0)
(0.000588257103136 3.98392504728e-06 0)
(0.000582857619308 5.72514870392e-06 0)
(0.000575572632488 7.3296267698e-06 0)
(0.00056656049076 8.77929912962e-06 0)
(0.000555997864461 1.00613247759e-05 0)
(0.000544074600207 1.11668078363e-05 0)
(0.000530989556375 1.20899982773e-05 0)
(0.00051694696781 1.28280395267e-05 0)
(0.000502152899819 1.33811370233e-05 0)
(0.00048681150867 1.37529199835e-05 0)
(0.000471121042753 1.39507548878e-05 0)
(0.000455269723622 1.39858180725e-05 0)
(0.000439431790284 1.38728201825e-05 0)
(0.000423764047998 1.3629372993e-05 0)
(0.00040840323222 1.32750758877e-05 0)
(0.000393464397817 1.28304556478e-05 0)
(0.000379040406684 1.23159093861e-05 0)
(0.000365202450191 1.17507797247e-05 0)
(0.000352001435989 1.11526470674e-05 0)
(0.000339470006845 1.05368729726e-05 0)
(0.000327624943149 9.91638492327e-06 0)
(0.000316469720952 9.30166359698e-06 0)
(0.000305997040023 8.70088010692e-06 0)
(0.000296191187776 8.12012964056e-06 0)
(0.000287030154957 7.56371485001e-06 0)
(0.000278487461445 7.03444296775e-06 0)
(0.000270533682942 6.5339117247e-06 0)
(0.00026313769155 6.06276892203e-06 0)
(0.000256267636758 5.62093811945e-06 0)
(0.000249891700052 5.20780831371e-06 0)
(0.000243978658215 4.82238893681e-06 0)
(0.000238498289136 4.46343348376e-06 0)
(0.000233421650824 4.12953597067e-06 0)
(0.000228721260421 3.81920464201e-06 0)
(0.000224371195812 3.53091712428e-06 0)
(0.000220347138402 3.26316081028e-06 0)
(0.000216626372017 3.01446173774e-06 0)
(0.000213187749624 2.78340472764e-06 0)
(0.000210011636866 2.56864707054e-06 0)
(0.000207079839067 2.36892766399e-06 0)
(0.0002043755164 2.18307317534e-06 0)
(0.000201883090267 2.01000257855e-06 0)
(0.000199588142478 1.84873125043e-06 0)
(0.000197477307513 1.69837575102e-06 0)
(0.000195538156892 1.55816042246e-06 0)
(0.000193759073422 1.42742706677e-06 0)
(0.00019212911167 1.30564919048e-06 0)
(0.000190637839444 1.1924526994e-06 0)
(0.000189275153169 1.08764550948e-06 0)
(0.000188031057768 9.91259422772e-07 0)
(0.000186895398951 9.03608893159e-07 0)
(0.00018585753282 8.25373182831e-07 0)
(0.000184905914863 7.57711085948e-07 0)
(0.00018402758932 7.02421084671e-07 0)
(0.000183207564703 6.62164194624e-07 0)
(0.000182428082713 6.40769535846e-07 0)
(0.000181667853229 6.43633724169e-07 0)
(0.000180901506783 6.78166555974e-07 0)
(0.000180099989556 7.53984191032e-07 0)
(0.000179233813686 8.81547220975e-07 0)
(0.000178284635431 1.06352543265e-06 0)
(0.000177269002003 1.24689942508e-06 0)
(0.00122478194481 0.000267911104315 0)
(0.00124107255761 0.000383697842208 0)
(0.00119612904485 0.000347882209539 0)
(0.0011132871707 0.000284218090704 0)
(0.00102016806016 0.000225762522649 0)
(0.000930475104502 0.000178745618128 0)
(0.000849641862333 0.00014238545587 0)
(0.000779065632771 0.000114486173413 0)
(0.000718380679661 9.29702313199e-05 0)
(0.000666563794972 7.62006010848e-05 0)
(0.000622438313791 6.29631340809e-05 0)
(0.000584885489379 5.23751207559e-05 0)
(0.000552919512982 4.37963484672e-05 0)
(0.000525702176117 3.67596222881e-05 0)
(0.000502533046412 3.09204311332e-05 0)
(0.000482831519328 2.60215322796e-05 0)
(0.000466117826325 2.18682582261e-05 0)
(0.000451995767273 1.83112831063e-05 0)
(0.000440137998691 1.523451871e-05 0)
(0.000430273890925 1.25465340255e-05 0)
(0.000422179662531 1.01744062488e-05 0)
(0.000415670422327 8.05926281911e-06 0)
(0.000410593764992 6.15301090761e-06 0)
(0.000406824613956 4.41590975451e-06 0)
(0.000404261058955 2.81474818822e-06 0)
(0.000402820984791 1.32146209082e-06 0)
(0.000402439328895 -8.79238904128e-08 0)
(0.000403065837922 -1.43411142558e-06 0)
(0.000404663218519 -2.7351557417e-06 0)
(0.000407205598917 -4.0069535006e-06 0)
(0.000410677232416 -5.2636163277e-06 0)
(0.000415071382068 -6.51774693436e-06 0)
(0.000420389333199 -7.78063144278e-06 0)
(0.000426639484626 -9.06235530936e-06 0)
(0.000433836471124 -1.03718455003e-05 0)
(0.000442000269296 -1.17168377334e-05 0)
(0.000451155237081 -1.31037645022e-05 0)
(0.000461329033891 -1.45375572057e-05 0)
(0.000472551364538 -1.60213543105e-05 0)
(0.000484852486427 -1.75561074507e-05 0)
(0.000498261417085 -1.91400794778e-05 0)
(0.000512803779621 -2.07682335701e-05 0)
(0.000528499229285 -2.24315217669e-05 0)
(0.00054535841763 -2.41160957673e-05 0)
(0.000563379475041 -2.58024834038e-05 0)
(0.000582544030727 -2.74648007085e-05 0)
(0.000602812844167 -2.90701002871e-05 0)
(0.000624121194123 -3.05779874992e-05 0)
(0.000646374257931 -3.19406595375e-05 0)
(0.000669442807237 -3.31035289998e-05 0)
(0.000693159633441 -3.40065726849e-05 0)
(0.000717317178532 -3.45864913605e-05 0)
(0.000741666865272 -3.47796792396e-05 0)
(0.000765920579731 -3.45258968279e-05 0)
(0.000789754654867 -3.37724408288e-05 0)
(0.000812816545639 -3.24785307966e-05 0)
(0.000834734192047 -3.06195876547e-05 0)
(0.000855127850735 -2.81910433096e-05 0)
(0.000873623938384 -2.52112643817e-05 0)
(0.00088987016078 -2.17230954081e-05 0)
(0.000903550903917 -1.77934844146e-05 0)
(0.000914401586022 -1.35107484854e-05 0)
(0.000922220514154 -8.97935433118e-06 0)
(0.000926876881469 -4.31262226616e-06 0)
(0.000928313966209 3.75625298322e-07 0)
(0.00092654732831 4.97900091269e-06 0)
(0.000921658684391 9.40453722106e-06 0)
(0.000913786871482 1.35758130689e-05 0)
(0.000903117602343 1.7433194637e-05 0)
(0.000889873509835 2.09319386702e-05 0)
(0.000874305400343 2.40393915284e-05 0)
(0.000856684950723 2.67324232114e-05 0)
(0.000837298559254 2.89957846231e-05 0)
(0.000816441818582 3.08215474111e-05 0)
(0.000794414100247 3.22093794288e-05 0)
(0.000771512934652 3.31671976508e-05 0)
(0.000748028133424 3.37117074383e-05 0)
(0.000724235848351 3.38684328975e-05 0)
(0.000700392934405 3.36710162445e-05 0)
(0.000676732052273 3.31597656758e-05 0)
(0.000653457904173 3.23796123935e-05 0)
(0.000630744867674 3.13777565538e-05 0)
(0.000608736117488 3.02013176917e-05 0)
(0.000587544151052 2.88952637692e-05 0)
(0.000567252497399 2.75008019432e-05 0)
(0.000547918309079 2.60543083509e-05 0)
(0.000529575514703 2.458678219e-05 0)
(0.000512238232967 2.31237466486e-05 0)
(0.000495904200707 2.16854884499e-05 0)
(0.00048055803105 2.02875232165e-05 0)
(0.000466174180545 1.89411863949e-05 0)
(0.000452719558621 1.76542703918e-05 0)
(0.000440155755385 1.6431651256e-05 0)
(0.000428440894254 1.5275868747e-05 0)
(0.000417531135648 1.41876400711e-05 0)
(0.000407381868945 1.31662996173e-05 0)
(0.000397948634564 1.22101650804e-05 0)
(0.000389187818259 1.13168352518e-05 0)
(0.000381057157218 1.04834272924e-05 0)
(0.000373516093538 9.70676225782e-06 0)
(0.000366526005962 8.98350757985e-06 0)
(0.000360050345967 8.31028458573e-06 0)
(0.000354054699764 7.68374822921e-06 0)
(0.000348506793605 7.10064523508e-06 0)
(0.000343376456142 6.55785591274e-06 0)
(0.000338635548424 6.05242407049e-06 0)
(0.000334257869354 5.58157876346e-06 0)
(0.000330219042107 5.14275107826e-06 0)
(0.000326496384964 4.73358877285e-06 0)
(0.000323068768185 4.35197137756e-06 0)
(0.000319916456959 3.99602830009e-06 0)
(0.000317020938877 3.66416259134e-06 0)
(0.000314364732978 3.35508330688e-06 0)
(0.000311931175991 3.06784987294e-06 0)
(0.000309704180191 2.80193252379e-06 0)
(0.000307667956381 2.5572937221e-06 0)
(0.000305806695427 2.33449641313e-06 0)
(0.000304104203403 2.13484576593e-06 0)
(0.000302543490621 1.96057104536e-06 0)
(0.00030110632717 1.81505174069e-06 0)
(0.000299772804033 1.70308269773e-06 0)
(0.000298520992592 1.63114563313e-06 0)
(0.000297326900859 1.60757978384e-06 0)
(0.000296165125805 1.64234274871e-06 0)
(0.000295010958399 1.7454932964e-06 0)
(0.000293845270662 1.92190238072e-06 0)
(0.000292663262418 2.15435738427e-06 0)
(0.000291481029847 2.3539339442e-06 0)
(0.00122191663907 0.000221212517756 0)
(0.00125333099662 0.000382691450166 0)
(0.00125090459019 0.000396258509819 0)
(0.00121307029575 0.000356517948418 0)
(0.00115485335886 0.000304798701917 0)
(0.00108866093915 0.000255594803851 0)
(0.00102197044586 0.00021305999536 0)
(0.00095874624638 0.000177612052881 0)
(0.000900816718542 0.000148458822894 0)
(0.000848804515208 0.000124541087812 0)
(0.000802691238369 0.000104861395845 0)
(0.000762143522406 8.85773900389e-05 0)
(0.000726694836342 7.5008732533e-05 0)
(0.000695843279996 6.36161225585e-05 0)
(0.000669101650677 5.39746812753e-05 0)
(0.00064602095978 4.57494918019e-05 0)
(0.000626199534806 3.86754086961e-05 0)
(0.000609284562097 3.25411567844e-05 0)
(0.000594969889382 2.71770791325e-05 0)
(0.000582992179505 2.24457845113e-05 0)
(0.000573126532119 1.8235025321e-05 0)
(0.000565182145391 1.44522650247e-05 0)
(0.000558998289047 1.10205173483e-05 0)
(0.000554440696909 7.87514213831e-06 0)
(0.000551398401062 4.96136304708e-06 0)
(0.000549780986475 2.23233318831e-06 0)
(0.000549516224861 -3.52379397997e-07 0)
(0.000550548037917 -2.82797897607e-06 0)
(0.000552834738361 -5.22536919141e-06 0)
(0.000556347501483 -7.57188244337e-06 0)
(0.000561069019986 -9.89183710265e-06 0)
(0.000566992294177 -1.22069464885e-05 0)
(0.000574119512135 -1.45365961607e-05 0)
(0.000582460974161 -1.68979978596e-05 0)
(0.00059203401435 -1.93062220149e-05 0)
(0.000602861869531 -2.17741054501e-05 0)
(0.000614972442313 -2.43120266753e-05 0)
(0.000628396900802 -2.69275380507e-05 0)
(0.000643168053274 -2.96248426596e-05 0)
(0.000659318432487 -3.24041046109e-05 0)
(0.000676878022688 -3.52605859044e-05 0)
(0.000695871564239 -3.81836122941e-05 0)
(0.00071631537867 -4.1155386576e-05 0)
(0.000738213673469 -4.41496919811e-05 0)
(0.00076155431457 -4.71305621272e-05 0)
(0.000786304098682 -5.00510368931e-05 0)
(0.00081240362002 -5.28521728527e-05 0)
(0.000839761907725 -5.54625256472e-05 0)
(0.000868251108501 -5.77983583528e-05 0)
(0.000897701595615 -5.97648385889e-05 0)
(0.000927897985432 -6.12584510039e-05 0)
(0.00095857661461 -6.21707594131e-05 0)
(0.000989425051026 -6.23935069835e-05 0)
(0.00102008416008 -6.1824866101e-05 0)
(0.00105015311977 -6.03764810985e-05 0)
(0.00107919758634 -5.79808241397e-05 0)
(0.00110676098348 -5.45983160422e-05 0)
(0.00113237864512 -5.0223615736e-05 0)
(0.00115559428409 -4.48904017509e-05 0)
(0.00117597796483 -3.86738474212e-05 0)
(0.00119314441743 -3.16899178118e-05 0)
(0.00120677018856 -2.40907617083e-05 0)
(0.00121660790561 -1.60559836036e-05 0)
(0.00122249599744 -7.78045348097e-06 0)
(0.00122436269106 5.39672811884e-07 0)
(0.00122222398299 8.72029017027e-06 0)
(0.00121617638 1.65994820443e-05 0)
(0.00120638612995 2.40429150749e-05 0)
(0.0011930770381 3.0944434561e-05 0)
(0.0011765186847 3.72231230555e-05 0)
(0.00115701610698 4.2818870589e-05 0)
(0.00113490115522 4.76883199459e-05 0)
(0.00111052511897 5.18022885591e-05 0)
(0.00108425197135 5.51449035989e-05 0)
(0.00105645164492 5.77140390255e-05 0)
(0.00102749300444 5.95223146863e-05 0)
(0.000997736495404 6.05978710632e-05 0)
(0.000967526732068 6.09842882225e-05 0)
(0.000937185482315 6.07392955819e-05 0)
(0.000907005577272 5.99322451465e-05 0)
(0.000877246214774 5.86406160388e-05 0)
(0.000848129965115 5.69460126475e-05 0)
(0.000819841575348 5.49301763464e-05 0)
(0.000792528461384 5.26714616393e-05 0)
(0.000766302618892 5.02420777641e-05 0)
(0.000741243595002 4.77062237684e-05 0)
(0.000717402141534 4.51190951706e-05 0)
(0.000694804200863 4.25266381716e-05 0)
(0.000673454936917 3.99658767732e-05 0)
(0.000653342596951 3.74656296838e-05 0)
(0.000634442061125 3.50474529253e-05 0)
(0.000616717998271 3.27266767604e-05 0)
(0.00060012759444 3.05134414828e-05 0)
(0.000584622855495 2.84136694704e-05 0)
(0.000570152507995 2.642993761e-05 0)
(0.000556663536013 2.45622341337e-05 0)
(0.000544102397911 2.28085975583e-05 0)
(0.000532415968539 2.11656440277e-05 0)
(0.000521552250538 1.9628994124e-05 0)
(0.00051146089478 1.81936123395e-05 0)
(0.00050209356539 1.6854072773e-05 0)
(0.000493404179872 1.56047639693e-05 0)
(0.000485349050053 1.44400446098e-05 0)
(0.000477886945056 1.33543603566e-05 0)
(0.000470979093464 1.23423307231e-05 0)
(0.000464589138231 1.13988135467e-05 0)
(0.000458683054807 1.05189535098e-05 0)
(0.000453229040189 9.69822025336e-06 0)
(0.000448197378315 8.93244093769e-06 0)
(0.000443560285195 8.21783164317e-06 0)
(0.000439291735393 7.55103174752e-06 0)
(0.000435367270048 6.92914535816e-06 0)
(0.000431763785346 6.34979398377e-06 0)
(0.000428459299528 5.8111848534e-06 0)
(0.000425432696159 5.3121995314e-06 0)
(0.000422663441899 4.85250753038e-06 0)
(0.000420131279003 4.43270908841e-06 0)
(0.000417815897287 4.0545093136e-06 0)
(0.000415696599041 3.72092081923e-06 0)
(0.000413751986306 3.43648022598e-06 0)
(0.000411959727476 3.20743800414e-06 0)
(0.00041029650614 3.0418246653e-06 0)
(0.000408738327569 2.94917236437e-06 0)
(0.000407261460982 2.93939290864e-06 0)
(0.000405844400654 3.0196718419e-06 0)
(0.000404471107158 3.18670596465e-06 0)
(0.000403134378374 3.40829161421e-06 0)
(0.000401831606465 3.58500477155e-06 0)
(0.00121691039188 0.000182385483973 0)
(0.00124898094215 0.000358033567404 0)
(0.00126540768079 0.000406916048762 0)
(0.00125538283534 0.000393719538121 0)
(0.00122468768242 0.000356509190929 0)
(0.00118163760586 0.000313126800047 0)
(0.00113278700419 0.000271069083154 0)
(0.00108251492838 0.000233099229512 0)
(0.00103351185852 0.000199904233219 0)
(0.000987311023509 0.000171308705196 0)
(0.000944696876347 0.000146821191952 0)
(0.000905987624371 0.000125874551487 0)
(0.000871221715279 0.000107926155998 0)
(0.000840277657757 9.24943028777e-05 0)
(0.000812949487595 7.91662905367e-05 0)
(0.000788993397765 6.75946535778e-05 0)
(0.000768155900152 5.74891600607e-05 0)
(0.000750190296257 4.86079728543e-05 0)
(0.000734865829176 4.07493940023e-05 0)
(0.000721972312528 3.37446876623e-05 0)
(0.000711322011522 2.74520624531e-05 0)
(0.000702749896063 2.17517224087e-05 0)
(0.00069611296704 1.65418381451e-05 0)
(0.000691289090255 1.17352836128e-05 0)
(0.000688175602932 7.25699867571e-06 0)
(0.000686687850154 3.0418594966e-06 0)
(0.000686757740316 -9.67038992978e-07 0)
(0.000688332363284 -4.81975939463e-06 0)
(0.000691372688977 -8.56061809506e-06 0)
(0.000695852349521 -1.22290595288e-05 0)
(0.000701756491416 -1.58603218187e-05 0)
(0.000709080674358 -1.94859193312e-05 0)
(0.000717829789258 -2.31339555649e-05 0)
(0.000728016961921 -2.68292714439e-05 0)
(0.000739662403336 -3.05934271881e-05 0)
(0.000752792162006 -3.44445100827e-05 0)
(0.00076743672822 -3.83967557479e-05 0)
(0.000783629434598 -4.24599672647e-05 0)
(0.00080140459208 -4.66387154904e-05 0)
(0.000820795296522 -5.09313061694e-05 0)
(0.000841830839219 -5.53285066028e-05 0)
(0.000864533656752 -5.98120386579e-05 0)
(0.000888915763639 -6.4352868142e-05 0)
(0.000914974628453 -6.89093553063e-05 0)
(0.000942688483669 -7.34253791236e-05 0)
(0.000972011105492 -7.78286086487e-05 0)
(0.00100286616574 -8.20291644226e-05 0)
(0.00103514134527 -8.59189821266e-05 0)
(0.0010686825059 -8.93722433223e-05 0)
(0.001103288337 -9.22472512899e-05 0)
(0.00113870600843 -9.43900786368e-05 0)
(0.0011746284478 -9.56401792482e-05 0)
(0.00121069388746 -9.58379421943e-05 0)
(0.00124648827025 -9.48339019925e-05 0)
(0.00128155095405 -9.24990684944e-05 0)
(0.00131538393228 -8.87356621331e-05 0)
(0.0013474645305 -8.34874551128e-05 0)
(0.00137726128265 -7.67488736148e-05 0)
(0.00140425243239 -6.85719175719e-05 0)
(0.00142794620349 -5.90697706714e-05 0)
(0.00144790159688 -4.84158303968e-05 0)
(0.00146374803797 -3.68370541544e-05 0)
(0.00147520186891 -2.460123519e-05 0)
(0.00148207767736 -1.19991015866e-05 0)
(0.00148429296223 6.76339630012e-07 0)
(0.00148186568741 1.31496001913e-05 0)
(0.00147490565327 2.51778000343e-05 0)
(0.00146360181764 3.65586709048e-05 0)
(0.00144820818219 4.71313917742e-05 0)
(0.00142903045174 5.67722334094e-05 0)
(0.00140641464788 6.53881238085e-05 0)
(0.00138073776446 7.29108824697e-05 0)
(0.00135239983435 7.92936718173e-05 0)
(0.00132181655211 8.45099287397e-05 0)
(0.00128941174761 8.85541227273e-05 0)
(0.00125560934777 9.14432488574e-05 0)
(0.00122082484855 9.32179226009e-05 0)
(0.00118545664983 9.39421763489e-05 0)
(0.00114987782471 9.37014603178e-05 0)
(0.00111442896512 9.25988236233e-05 0)
(0.00107941266295 9.07496815901e-05 0)
(0.00104508998284 8.82758571399e-05 0)
(0.00101167902358 8.52996622108e-05 0)
(0.000979355419409 8.19386763778e-05 0)
(0.000948254453314 7.83016552924e-05 0)
(0.00091847436084 7.44857475438e-05 0)
(0.000890080389651 7.05749822823e-05 0)
(0.000863109223756 6.66398451553e-05 0)
(0.000837573456246 6.27376900675e-05 0)
(0.00081346587872 5.89137239764e-05 0)
(0.000790763434619 5.52023298974e-05 0)
(0.000769430749963 5.16285398375e-05 0)
(0.000749423205833 4.82095200603e-05 0)
(0.00073068955319 4.49559772752e-05 0)
(0.000713174094328 4.18734320048e-05 0)
(0.000696818469249 3.89633336209e-05 0)
(0.000681563092012 3.6224011149e-05 0)
(0.000667348283897 3.36514665147e-05 0)
(0.000654115148764 3.12400241477e-05 0)
(0.000641806232591 2.89828543409e-05 0)
(0.000630366004755 2.68723887411e-05 0)
(0.000619741193803 2.49006457958e-05 0)
(0.00060988100568 2.30594825664e-05 0)
(0.000600737247829 2.13407875372e-05 0)
(0.000592264378473 1.97366271658e-05 0)
(0.000584419496649 1.82393571604e-05 0)
(0.000577162285339 1.68417078931e-05 0)
(0.000570454917246 1.55368520526e-05 0)
(0.000564261930298 1.43184615855e-05 0)
(0.000558550077945 1.31807601971e-05 0)
(0.0005532881576 1.21185771245e-05 0)
(0.000548446819184 1.11274075384e-05 0)
(0.000543998354772 1.02034846822e-05 0)
(0.000539916469826 9.34386861593e-06 0)
(0.000536176036587 8.54655596719e-06 0)
(0.000532752831345 7.81061404952e-06 0)
(0.0005296232597 7.13634038948e-06 0)
(0.000526764078623 6.52544388226e-06 0)
(0.000524152131826 5.98123413448e-06 0)
(0.000521764127393 5.5087866598e-06 0)
(0.000519576505178 5.11501491572e-06 0)
(0.000517565467535 4.80850874745e-06 0)
(0.000515707277992 4.59885813941e-06 0)
(0.000513978952748 4.49490048133e-06 0)
(0.000512359411698 4.50076697942e-06 0)
(0.000510830775344 4.60754182069e-06 0)
(0.000509378021592 4.77693918795e-06 0)
(0.000507981878672 4.91527262631e-06 0)
(0.00121281673045 0.000152658358598 0)
(0.00124159249696 0.000326914366689 0)
(0.00126548264706 0.000397718348448 0)
(0.00127156428785 0.000406860431199 0)
(0.00126010155159 0.000385526175309 0)
(0.0012357391325 0.000351522299636 0)
(0.00120331626108 0.000313947045049 0)
(0.00116666728169 0.000277142311295 0)
(0.00112852878035 0.000243002711195 0)
(0.00109074203622 0.000212197794995 0)
(0.00105448671555 0.000184801558688 0)
(0.00102047615378 0.000160613987282 0)
(0.000989104638825 0.000139324133124 0)
(0.000960553560489 0.000120591450586 0)
(0.000934866055352 0.000104084807231 0)
(0.000911998663068 8.94996082516e-05 0)
(0.000891856623101 7.65637324006e-05 0)
(0.000874317701342 6.50379158119e-05 0)
(0.000859248055224 5.47135541277e-05 0)
(0.000846512615457 4.54094741115e-05 0)
(0.00083598171718 3.69684657586e-05 0)
(0.000827535183742 2.9253958821e-05 0)
(0.000821064694111 2.2147011598e-05 0)
(0.000816475004967 1.55436677346e-05 0)
(0.000813684417737 9.35268122778e-06 0)
(0.000812624755228 3.49358487743e-06 0)
(0.000813241025318 -2.10493141051e-06 0)
(0.000815490884948 -7.50635574017e-06 0)
(0.000819343980124 -1.27674481144e-05 0)
(0.000824781209241 -1.79391239453e-05 0)
(0.000831793927342 -2.30671214012e-05 0)
(0.000840383094347 -2.81924728758e-05 0)
(0.000850558359788 -3.33517846645e-05 0)
(0.000862337065604 -3.85773221994e-05 0)
(0.000875743139381 -4.3896892023e-05 0)
(0.000890805842218 -4.93335061222e-05 0)
(0.000907558327728 -5.49048097233e-05 0)
(0.000926035961636 -6.06222507415e-05 0)
(0.000946274344993 -6.64899688499e-05 0)
(0.000968306978943 -7.2503385992e-05 0)
(0.000992162506096 -7.86474901827e-05 0)
(0.00101786146435 -8.48948231531e-05 0)
(0.00104541249566 -9.12032128681e-05 0)
(0.00107480796771 -9.75133372098e-05 0)
(0.00110601899423 -0.000103746267496 0)
(0.00113898988474 -0.000109801219968 0)
(0.00117363212071 -0.000115553835576 0)
(0.00120981804663 -0.000120855401688 0)
(0.00124737458063 -0.000125533502777 0)
(0.00128607738394 -0.000129394609898 0)
(0.00132564606459 -0.000132229055201 0)
(0.0013657410993 -0.000133818659434 0)
(0.00140596320093 -0.000133946985728 0)
(0.00144585580247 -0.000132411825151 0)
(0.00148491115813 -0.000129039167289 0)
(0.00152258030403 -0.000123697670291 0)
(0.00155828683211 -0.000116312556709 0)
(0.00159144416858 -0.000106877845037 0)
(0.0016214758092 -9.54657222469e-05 0)
(0.00164783767165 -8.22315870447e-05 0)
(0.00167004128856 -6.7413014029e-05 0)
(0.0016876760005 -5.13210158598e-05 0)
(0.0017004278071 -3.43229062542e-05 0)
(0.00170809240857 -1.68178387628e-05 0)
(0.00171058049289 7.91706156045e-07 0)
(0.00170791459189 1.8127405028e-05 0)
(0.00170021860864 3.48560053369e-05 0)
(0.00168770272967 5.07001705328e-05 0)
(0.00167064707944 6.54391660811e-05 0)
(0.00164938685367 7.89024018837e-05 0)
(0.00162430021544 9.09603825824e-05 0)
(0.00159579879401 0.000101516912546 0)
(0.00156431978447 0.000110504564478 0)
(0.00153031848439 0.000117883600757 0)
(0.00149426039251 0.000123643328978 0)
(0.00145661246687 0.000127804349683 0)
(0.00141783361916 0.00013042015026 0)
(0.00137836491273 0.000131576835591 0)
(0.00133862018262 0.000131390338431 0)
(0.00129897786793 0.000130001102506 0)
(0.00125977473113 0.000127566825151 0)
(0.00122130187876 0.000124254230396 0)
(0.00118380317489 0.00012023093743 0)
(0.00114747584469 0.000115658321939 0)
(0.00111247286254 0.000110685945525 0)
(0.00107890662564 0.000105447775401 0)
(0.00104685341647 0.000100060124685 0)
(0.00101635822166 9.46210545539e-05 0)
(0.000987439569025 8.92108930773e-05 0)
(0.000960094142862 8.38935180651e-05 0)
(0.000934301024863 7.87180924232e-05 0)
(0.000910025478383 7.37210040241e-05 0)
(0.000887222245568 6.89278294058e-05 0)
(0.000865838362612 6.43552010724e-05 0)