/*--------------------------------*- C++ -*----------------------------------*\
  =========                 |
  \\      /  F ield         | OpenFOAM: The Open Source CFD Toolbox
   \\    /   O peration     | Website:  https://openfoam.org
    \\  /    A nd           | Version:  7
     \\/     M anipulation  |
\*---------------------------------------------------------------------------*/
FoamFile
{
    version     2.0;
    format      ascii;
    class       volScalarField;
    location    "3540";
    object      Ci;
}
// * * * * * * * * * * * * * * * * * * * * * * * * * * * * * * * * * * * * * //

dimensions      [0 -3 0 0 1 0 0];

internalField   nonuniform List<scalar> 
8192
(
9.99999999239
10.0000000266
10.0000000788
10.0000001497
10.0000002437
10.0000003575
10.000000486
10.0000006248
10.000000771
10.0000009219
10.000001076
10.0000012315
10.0000013873
10.0000015419
10.0000016946
10.0000018437
10.0000019886
10.0000021276
10.0000022602
10.0000023847
10.0000025008
10.0000026068
10.0000027025
10.0000027865
10.0000028585
10.0000029174
10.0000029631
10.0000029944
10.0000030115
10.0000030134
10.0000030005
10.0000029718
10.0000029278
10.0000028676
10.0000027922
10.0000027006
10.0000025939
10.0000024714
10.0000023344
10.0000021824
10.0000020171
10.0000018382
10.0000016479
10.0000014463
10.0000012363
10.0000010184
10.0000007959
10.0000005699
10.0000003442
10.00000012
9.99999990168
9.99999969039
9.99999949068
9.99999930386
9.99999913481
9.99999898518
9.99999886057
9.99999876341
9.99999870048
9.99999867522
9.99999869547
9.99999876509
9.99999889173
9.99999907768
9.99999932778
9.99999964004
10.0000000142
10.0000004428
10.0000009207
10.000001437
10.0000019844
10.0000025513
10.0000031308
10.0000037124
10.0000042909
10.0000048578
10.0000054097
10.0000059404
10.0000064486
10.00000693
10.0000073852
10.0000078117
10.0000082112
10.0000085824
10.000008928
10.0000092473
10.0000095432
10.0000098154
10.0000100667
10.0000102969
10.0000105087
10.0000107014
10.0000108777
10.0000110367
10.0000111807
10.0000113089
10.0000114234
10.0000115233
10.0000116107
10.0000116849
10.0000117479
10.000011799
10.0000118404
10.0000118713
10.000011894
10.0000119079
10.000011915
10.0000119147
10.0000119091
10.0000118973
10.0000118814
10.0000118603
10.0000118359
10.000011807
10.0000117751
10.0000117389
10.0000116995
10.0000116551
10.0000116065
10.0000115512
10.0000114892
10.0000114177
10.000011337
10.0000112452
10.0000111454
10.0000110418
10.0000109458
10.0000108786
10.000000002
10.0000000462
10.0000000969
10.00000016
10.00000024
10.0000003368
10.0000004487
10.000000573
10.0000007072
10.0000008487
10.0000009954
10.0000011454
10.0000012972
10.0000014492
10.0000016002
10.0000017488
10.0000018939
10.0000020341
10.0000021687
10.0000022961
10.0000024158
10.0000025264
10.0000026273
10.0000027175
10.0000027964
10.0000028631
10.0000029174
10.0000029582
10.0000029856
10.0000029988
10.0000029979
10.0000029821
10.0000029519
10.0000029066
10.0000028468
10.0000027719
10.0000026826
10.0000025786
10.0000024608
10.000002329
10.0000021846
10.0000020274
10.0000018593
10.0000016805
10.0000014934
10.0000012985
10.0000010987
10.0000008949
10.0000006903
10.0000004861
10.0000002857
10.0000000904
9.99999990378
9.99999972718
9.99999956459
9.99999941768
9.99999929114
9.99999918745
9.9999991124
9.99999906945
9.99999906541
9.99999910422
9.99999919254
9.99999933317
9.99999953046
9.99999978377
10.0000000933
10.0000004539
10.0000008618
10.0000013087
10.0000017887
10.0000022925
10.0000028139
10.0000033441
10.000003878
10.0000044078
10.0000049296
10.0000054375
10.0000059291
10.0000064001
10.0000068498
10.0000072754
10.0000076776
10.0000080549
10.0000084087
10.0000087383
10.0000090457
10.0000093307
10.0000095954
10.0000098397
10.0000100656
10.000010273
10.0000104637
10.0000106374
10.0000107959
10.0000109386
10.0000110674
10.0000111815
10.0000112829
10.0000113709
10.0000114474
10.0000115118
10.0000115661
10.0000116098
10.0000116447
10.0000116705
10.000011689
10.0000116999
10.0000117048
10.0000117033
10.0000116971
10.0000116855
10.00001167
10.0000116499
10.0000116263
10.0000115983
10.0000115668
10.0000115303
10.0000114893
10.0000114419
10.0000113877
10.0000113245
10.0000112519
10.000011168
10.0000110744
10.0000109759
10.0000108832
10.0000108094
10.000000003
10.0000000537
10.0000001051
10.0000001605
10.000000226
10.000000303
10.0000003918
10.0000004919
10.0000006025
10.0000007221
10.0000008496
10.0000009829
10.0000011209
10.0000012618
10.0000014043
10.0000015468
10.0000016883
10.0000018271
10.0000019625
10.0000020929
10.0000022178
10.0000023356
10.0000024461
10.0000025477
10.0000026404
10.0000027229
10.0000027951
10.000002856
10.0000029057
10.0000029431
10.0000029688
10.0000029816
10.0000029823
10.0000029698
10.0000029451
10.0000029072
10.0000028571
10.0000027941
10.0000027194
10.0000026322
10.0000025342
10.0000024247
10.0000023056
10.0000021764
10.0000020395
10.0000018945
10.0000017444
10.0000015888
10.0000014309
10.0000012706
10.0000011112
10.0000009525
10.0000007981
10.0000006476
10.0000005049
10.0000003698
10.0000002468
10.0000001365
10.0000000441
9.99999997136
9.99999992454
9.99999990603
9.99999992268
9.99999997648
10.0000000732
10.0000002127
10.000000398
10.0000006259
10.0000008965
10.000001204
10.0000015462
10.0000019164
10.0000023116
10.0000027246
10.0000031522
10.0000035875
10.0000040276
10.0000044663
10.0000049013
10.0000053274
10.0000057435
10.0000061454
10.000006533
10.0000069033
10.0000072571
10.0000075923
10.0000079104
10.0000082097
10.0000084923
10.0000087569
10.0000090055
10.000009237
10.0000094535
10.0000096539
10.0000098401
10.0000100112
10.0000101689
10.0000103123
10.0000104433
10.000010561
10.0000106671
10.000010761
10.0000108446
10.0000109171
10.0000109805
10.000011034
10.0000110798
10.0000111171
10.0000111479
10.0000111714
10.0000111894
10.0000112012
10.0000112085
10.0000112103
10.0000112082
10.0000112009
10.0000111898
10.0000111734
10.0000111526
10.0000111254
10.0000110921
10.0000110503
10.000011
10.0000109391
10.0000108675
10.0000107881
10.0000107103
10.000010635
10.0000000022
10.0000000591
10.0000001118
10.000000166
10.0000002263
10.0000002939
10.0000003693
10.0000004528
10.0000005445
10.0000006441
10.0000007511
10.0000008647
10.000000984
10.0000011078
10.0000012352
10.0000013648
10.0000014956
10.0000016262
10.0000017558
10.0000018831
10.0000020072
10.0000021271
10.0000022421
10.0000023511
10.0000024537
10.0000025489
10.0000026364
10.0000027154
10.0000027858
10.0000028469
10.0000028986
10.0000029405
10.0000029726
10.0000029944
10.0000030064
10.0000030079
10.0000029995
10.0000029808
10.0000029524
10.0000029138
10.000002866
10.0000028086
10.0000027425
10.0000026676
10.000002585
10.0000024949
10.0000023984
10.0000022958
10.0000021886
10.0000020769
10.0000019625
10.0000018455
10.0000017276
10.0000016091
10.0000014919
10.0000013764
10.0000012651
10.0000011591
10.0000010617
10.0000009749
10.000000903
10.0000008489
10.0000008173
10.0000008112
10.0000008345
10.000000889
10.0000009766
10.0000010965
10.0000012488
10.0000014309
10.0000016414
10.0000018771
10.0000021363
10.0000024155
10.0000027125
10.0000030237
10.0000033468
10.000003678
10.0000040151
10.0000043545
10.0000046944
10.0000050316
10.0000053646
10.000005691
10.00000601
10.0000063195
10.0000066193
10.000006908
10.0000071857
10.0000074514
10.0000077055
10.0000079473
10.0000081773
10.0000083948
10.0000086006
10.000008794
10.0000089758
10.0000091455
10.0000093038
10.0000094505
10.0000095864
10.0000097112
10.0000098259
10.0000099303
10.0000100255
10.0000101113
10.0000101888
10.000010258
10.00001032
10.0000103745
10.0000104228
10.0000104646
10.0000105008
10.0000105313
10.0000105569
10.0000105771
10.0000105927
10.0000106029
10.0000106081
10.0000106074
10.0000106004
10.0000105858
10.0000105628
10.0000105302
10.0000104882
10.0000104377
10.0000103894
10.0000103228
10.0000000043
10.0000000675
10.000000126
10.000000182
10.000000241
10.0000003043
10.0000003727
10.0000004467
10.0000005266
10.0000006125
10.0000007044
10.0000008019
10.0000009047
10.000001012
10.0000011234
10.0000012378
10.0000013545
10.0000014726
10.0000015912
10.0000017095
10.0000018265
10.0000019415
10.0000020537
10.0000021623
10.0000022668
10.0000023664
10.0000024607
10.000002549
10.0000026312
10.0000027066
10.0000027751
10.0000028362
10.00000289
10.000002936
10.0000029743
10.0000030046
10.0000030271
10.0000030413
10.0000030477
10.0000030458
10.000003036
10.0000030181
10.0000029925
10.000002959
10.0000029182
10.0000028699
10.000002815
10.0000027532
10.0000026856
10.0000026122
10.0000025339
10.0000024509
10.0000023643
10.0000022741
10.0000021819
10.0000020879
10.0000019942
10.0000019017
10.000001813
10.0000017302
10.0000016566
10.000001595
10.0000015494
10.0000015223
10.000001517
10.0000015347
10.000001577
10.0000016431
10.0000017325
10.0000018431
10.0000019738
10.0000021225
10.0000022882
10.0000024688
10.0000026635
10.0000028704
10.0000030886
10.0000033161
10.0000035521
10.0000037945
10.0000040424
10.0000042938
10.0000045478
10.0000048026
10.0000050573
10.0000053104
10.0000055611
10.0000058081
10.000006051
10.0000062886
10.0000065206
10.0000067461
10.0000069648
10.0000071761
10.0000073798
10.0000075753
10.0000077627
10.0000079413
10.0000081115
10.0000082727
10.0000084254
10.0000085691
10.0000087044
10.0000088311
10.0000089498
10.0000090602
10.0000091632
10.0000092586
10.0000093472
10.0000094288
10.0000095041
10.0000095732
10.0000096366
10.0000096942
10.0000097465
10.0000097934
10.0000098353
10.0000098717
10.000009903
10.0000099283
10.0000099476
10.0000099596
10.0000099638
10.0000099587
10.0000099451
10.0000099226
10.0000099062
10.0000098605
10.0000000044
10.0000000725
10.0000001345
10.0000001943
10.0000002558
10.0000003195
10.000000386
10.000000456
10.0000005298
10.0000006078
10.0000006902
10.0000007768
10.0000008677
10.0000009624
10.0000010606
10.0000011618
10.0000012655
10.000001371
10.0000014777
10.0000015849
10.0000016921
10.0000017984
10.0000019034
10.0000020065
10.000002107
10.0000022044
10.0000022983
10.0000023882
10.0000024737
10.0000025544
10.0000026302
10.0000027005
10.0000027653
10.0000028242
10.0000028771
10.0000029237
10.0000029641
10.0000029978
10.0000030249
10.000003045
10.0000030583
10.0000030643
10.0000030631
10.0000030546
10.0000030387
10.0000030155
10.0000029851
10.0000029475
10.0000029032
10.0000028522
10.0000027951
10.0000027322
10.0000026642
10.0000025915
10.0000025151
10.0000024358
10.000002355
10.0000022742
10.0000021956
10.0000021216
10.0000020551
10.0000019992
10.0000019572
10.000001932
10.0000019261
10.0000019407
10.0000019761
10.0000020313
10.0000021045
10.0000021935
10.000002296
10.0000024101
10.0000025343
10.0000026669
10.0000028073
10.0000029542
10.0000031073
10.0000032656
10.000003429
10.0000035969
10.0000037691
10.000003945
10.0000041246
10.0000043072
10.0000044925
10.0000046798
10.0000048689
10.0000050588
10.0000052494
10.0000054398
10.0000056295
10.0000058177
10.0000060041
10.0000061878
10.0000063685
10.0000065453
10.0000067181
10.0000068862
10.0000070493
10.0000072069
10.0000073589
10.0000075051
10.0000076453
10.0000077794
10.0000079075
10.0000080295
10.0000081455
10.0000082556
10.00000836
10.0000084587
10.0000085519
10.0000086397
10.0000087223
10.0000087997
10.0000088721
10.0000089394
10.0000090018
10.0000090591
10.0000091112
10.0000091577
10.0000091984
10.0000092324
10.0000092591
10.0000092772
10.0000092877
10.0000092881
10.0000092965
10.0000092751
10.0000000059
10.0000000779
10.0000001451
10.0000002082
10.0000002716
10.0000003361
10.000000402
10.00000047
10.0000005404
10.0000006137
10.0000006901
10.0000007696
10.0000008523
10.0000009381
10.0000010266
10.0000011177
10.0000012109
10.0000013058
10.0000014019
10.0000014989
10.0000015962
10.0000016934
10.0000017899
10.0000018852
10.0000019791
10.0000020709
10.0000021603
10.0000022469
10.0000023304
10.0000024105
10.0000024868
10.0000025591
10.0000026271
10.0000026906
10.0000027493
10.0000028031
10.0000028515
10.0000028945
10.0000029317
10.000002963
10.0000029879
10.0000030064
10.000003018
10.0000030225
10.0000030199
10.0000030099
10.0000029925
10.0000029676
10.0000029355
10.0000028963
10.0000028504
10.0000027981
10.0000027399
10.0000026764
10.0000026085
10.0000025371
10.0000024636
10.0000023896
10.0000023174
10.0000022495
10.000002189
10.0000021391
10.0000021032
10.0000020843
10.0000020848
10.0000021059
10.0000021474
10.0000022078
10.0000022848
10.0000023753
10.0000024767
10.0000025863
10.0000027022
10.0000028226
10.0000029461
10.0000030717
10.0000031984
10.0000033258
10.0000034535
10.0000035816
10.00000371
10.000003839
10.000003969
10.0000041001
10.0000042328
10.0000043671
10.0000045033
10.0000046415
10.0000047816
10.0000049235
10.0000050671
10.000005212
10.0000053579
10.0000055043
10.0000056509
10.000005797
10.0000059422
10.000006086
10.000006228
10.0000063677
10.0000065048
10.0000066388
10.0000067696
10.0000068969
10.0000070205
10.0000071403
10.0000072561
10.0000073678
10.0000074755
10.0000075791
10.0000076786
10.0000077739
10.000007865
10.0000079519
10.0000080345
10.0000081128
10.0000081867
10.000008256
10.0000083206
10.0000083801
10.0000084342
10.0000084822
10.0000085234
10.0000085569
10.0000085834
10.0000086004
10.0000086232
10.0000086233
10.0000000052
10.0000000796
10.0000001486
10.0000002152
10.000000282
10.000000349
10.0000004163
10.0000004844
10.0000005537
10.0000006248
10.0000006978
10.0000007731
10.0000008506
10.0000009304
10.0000010123
10.0000010962
10.0000011818
10.0000012687
10.0000013568
10.0000014456
10.0000015349
10.0000016241
10.000001713
10.0000018012
10.0000018884
10.0000019741
10.0000020581
10.0000021401
10.0000022197
10.0000022968
10.0000023708
10.0000024418
10.0000025093
10.0000025733
10.0000026332
10.0000026891
10.0000027404
10.0000027871
10.0000028285
10.0000028648
10.0000028951
10.0000029194
10.0000029371
10.0000029481
10.000002952
10.0000029485
10.0000029375
10.0000029189
10.0000028929
10.0000028594
10.0000028189
10.0000027715
10.0000027179
10.0000026585
10.0000025942
10.0000025258
10.0000024547
10.0000023827
10.0000023121
10.0000022456
10.0000021866
10.0000021388
10.0000021058
10.0000020914
10.0000020979
10.0000021267
10.0000021772
10.0000022475
10.0000023343
10.0000024342
10.0000025436
10.0000026599
10.0000027805
10.0000029036
10.0000030274
10.0000031506
10.0000032721
10.000003391
10.000003507
10.0000036196
10.0000037292
10.0000038359
10.0000039403
10.0000040428
10.0000041441
10.0000042449
10.0000043457
10.0000044471
10.0000045497
10.0000046537
10.0000047594
10.0000048669
10.0000049764
10.0000050875
10.0000052002
10.0000053141
10.0000054291
10.0000055446
10.0000056604
10.000005776
10.0000058911
10.0000060053
10.0000061185
10.0000062302
10.0000063402
10.0000064482
10.0000065542
10.0000066579
10.0000067591
10.0000068576
10.0000069535
10.0000070465
10.0000071364
10.0000072232
10.0000073067
10.0000073866
10.000007463
10.0000075354
10.0000076037
10.0000076676
10.0000077264
10.0000077801
10.0000078272
10.0000078679
10.0000079012
10.0000079273
10.0000079546
10.0000079694
10.0000000065
10.0000000835
10.0000001563
10.000000225
10.0000002935
10.0000003619
10.0000004301
10.0000004984
10.0000005673
10.0000006372
10.0000007083
10.0000007809
10.0000008551
10.0000009309
10.0000010083
10.0000010872
10.0000011673
10.0000012486
10.0000013307
10.0000014135
10.0000014965
10.0000015796
10.0000016625
10.0000017449
10.0000018264
10.000001907
10.000001986
10.0000020637
10.0000021393
10.0000022132
10.0000022843
10.0000023534
10.000002419
10.0000024825
10.0000025418
10.0000025986
10.0000026504
10.0000026994
10.0000027425
10.0000027822
10.0000028153
10.0000028439
10.0000028655
10.0000028813
10.0000028897
10.0000028913
10.0000028853
10.000002872
10.000002851
10.0000028226
10.0000027868
10.0000027441
10.0000026947
10.0000026392
10.000002578
10.0000025121
10.0000024426
10.0000023712
10.0000023002
10.0000022327
10.0000021722
10.0000021229
10.0000020888
10.0000020741
10.0000020816
10.0000021128
10.0000021669
10.0000022417
10.0000023334
10.0000024382
10.0000025523
10.0000026728
10.0000027972
10.0000029236
10.0000030502
10.0000031755
10.0000032981
10.0000034171
10.0000035316
10.0000036413
10.0000037459
10.0000038456
10.0000039407
10.0000040316
10.000004119
10.0000042035
10.0000042859
10.000004367
10.0000044475
10.0000045281
10.0000046091
10.0000046913
10.0000047747
10.0000048596
10.000004946
10.0000050341
10.0000051235
10.0000052143
10.0000053061
10.0000053988
10.0000054921
10.0000055857
10.0000056794
10.0000057729
10.000005866
10.0000059585
10.00000605
10.0000061406
10.0000062298
10.0000063176
10.0000064037
10.000006488
10.0000065701
10.00000665
10.0000067273
10.000006802
10.0000068736
10.0000069421
10.0000070068
10.000007068
10.0000071243
10.0000071764
10.0000072219
10.0000072626
10.0000072948
10.0000073234
10.0000073472
10.0000073691
10.0000000057
10.0000000843
10.0000001583
10.0000002297
10.0000003011
10.0000003719
10.0000004419
10.0000005114
10.0000005808
10.0000006506
10.0000007209
10.0000007922
10.0000008645
10.0000009379
10.0000010124
10.000001088
10.0000011645
10.0000012419
10.0000013199
10.0000013984
10.0000014771
10.0000015559
10.0000016344
10.0000017127
10.0000017901
10.0000018669
10.0000019423
10.0000020169
10.0000020894
10.0000021611
10.0000022297
10.0000022979
10.0000023617
10.0000024256
10.0000024836
10.0000025425
10.0000025936
10.0000026461
10.0000026894
10.0000027338
10.000002768
10.000002802
10.0000028258
10.0000028474
10.0000028593
10.0000028664
10.0000028649
10.0000028568
10.0000028407
10.0000028172
10.0000027862
10.0000027479
10.0000027025
10.0000026503
10.0000025915
10.0000025269
10.0000024573
10.0000023845
10.0000023106
10.0000022392
10.0000021741
10.0000021204
10.0000020829
10.0000020667
10.0000020748
10.0000021093
10.0000021686
10.0000022498
10.0000023479
10.0000024582
10.0000025764
10.0000026997
10.0000028257
10.0000029527
10.000003079
10.0000032034
10.0000033247
10.0000034417
10.0000035539
10.0000036608
10.0000037621
10.0000038577
10.0000039478
10.0000040328
10.0000041131
10.0000041893
10.0000042622
10.0000043324
10.0000044008
10.000004468
10.0000045348
10.0000046015
10.0000046687
10.0000047368
10.0000048059
10.0000048762
10.0000049478
10.0000050206
10.0000050945
10.0000051695
10.0000052454
10.000005322
10.0000053991
10.0000054766
10.0000055543
10.000005632
10.0000057094
10.0000057864
10.0000058627
10.0000059383
10.0000060128
10.000006086
10.0000061577
10.0000062277
10.0000062957
10.0000063615
10.0000064246
10.0000064851
10.0000065422
10.0000065963
10.0000066455
10.0000066917
10.0000067306
10.0000067669
10.0000067925
10.0000068188
10.0000068344
10.0000068572
10.0000000069
10.0000000879
10.000000165
10.0000002381
10.0000003109
10.0000003829
10.0000004541
10.0000005245
10.0000005944
10.0000006642
10.0000007343
10.0000008049
10.000000876
10.000000948
10.0000010207
10.0000010941
10.0000011683
10.000001243
10.0000013182
10.0000013939
10.0000014695
10.0000015454
10.0000016208
10.0000016963
10.0000017707
10.0000018453
10.0000019178
10.000001991
10.0000020608
10.0000021322
10.0000021982
10.0000022677
10.0000023287
10.0000023961
10.000002451
10.0000025158
10.0000025632
10.0000026245
10.0000026635
10.000002719
10.0000027493
10.0000027958
10.0000028171
10.0000028508
10.0000028628
10.0000028805
10.0000028823
10.0000028827
10.0000028722
10.0000028559
10.0000028314
10.0000027995
10.00000276
10.0000027129
10.0000026583
10.0000025963
10.0000025278
10.0000024539
10.0000023771
10.000002301
10.0000022301
10.0000021701
10.0000021271
10.0000021067
10.000002113
10.0000021477
10.0000022091
10.0000022931
10.0000023939
10.0000025059
10.0000026248
10.0000027473
10.0000028713
10.0000029954
10.0000031181
10.0000032383
10.0000033551
10.0000034677
10.0000035755
10.0000036781
10.0000037752
10.0000038668
10.0000039528
10.0000040335
10.0000041093
10.0000041806
10.000004248
10.0000043123
10.000004374
10.0000044339
10.0000044927
10.0000045508
10.0000046088
10.000004667
10.0000047258
10.0000047853
10.0000048456
10.0000049069
10.000004969
10.0000050321
10.0000050958
10.0000051604
10.0000052254
10.0000052909
10.0000053566
10.0000054225
10.0000054884
10.000005554
10.0000056192
10.0000056838
10.0000057475
10.0000058103
10.0000058718
10.0000059318
10.0000059899
10.0000060462
10.0000060998
10.0000061513
10.0000061991
10.0000062447
10.000006285
10.0000063233
10.0000063535
10.0000063831
10.0000064
10.0000064212
10.0000064267
10.0000064466
10.0000000061
10.0000000886
10.0000001669
10.0000002424
10.0000003177
10.0000003919
10.000000465
10.0000005368
10.0000006079
10.0000006784
10.0000007489
10.0000008194
10.0000008902
10.0000009615
10.0000010332
10.0000011055
10.0000011782
10.0000012514
10.0000013249
10.0000013987
10.0000014725
10.0000015466
10.00000162
10.0000016941
10.0000017665
10.0000018402
10.0000019106
10.0000019841
10.0000020514
10.0000021248
10.0000021875
10.0000022617
10.0000023177
10.0000023939
10.0000024408
10.0000025199
10.0000025552
10.0000026375
10.0000026596
10.000002743
10.0000027522
10.0000028314
10.0000028309
10.0000028974
10.0000028918
10.0000029371
10.0000029296
10.0000029491
10.0000029383
10.0000029334
10.0000029141
10.0000028893
10.0000028559
10.0000028136
10.0000027624
10.0000027019
10.0000026322
10.0000025545
10.0000024711
10.0000023862
10.0000023053
10.0000022357
10.000002185
10.0000021607
10.0000021676
10.0000022078
10.0000022781
10.0000023728
10.0000024836
10.0000026036
10.0000027273
10.0000028517
10.0000029749
10.0000030955
10.0000032128
10.0000033259
10.0000034345
10.000003538
10.0000036365
10.0000037297
10.0000038178
10.0000039007
10.0000039785
10.0000040515
10.0000041199
10.0000041841
10.0000042447
10.0000043024
10.0000043577
10.0000044112
10.0000044636
10.0000045153
10.0000045668
10.0000046184
10.0000046705
10.000004723
10.0000047763
10.0000048303
10.0000048851
10.0000049405
10.0000049967
10.0000050533
10.0000051105
10.0000051679
10.0000052256
10.0000052833
10.0000053409
10.0000053983
10.0000054552
10.0000055115
10.000005567
10.0000056215
10.0000056746
10.0000057263
10.0000057761
10.0000058242
10.0000058695
10.0000059128
10.0000059522
10.0000059898
10.0000060217
10.0000060525
10.0000060741
10.000006097
10.000006105
10.0000061208
10.0000061166
10.000006132
10.0000000072
10.000000092
10.0000001731
10.0000002501
10.0000003266
10.0000004021
10.0000004763
10.0000005493
10.0000006214
10.0000006927
10.0000007636
10.0000008345
10.0000009053
10.0000009764
10.0000010477
10.0000011194
10.0000011913
10.0000012636
10.000001336
10.000001409
10.0000014814
10.0000015548
10.0000016267
10.0000017005
10.0000017712
10.0000018455
10.0000019137
10.0000019893
10.0000020533
10.0000021317
10.0000021887
10.0000022727
10.0000023184
10.0000024121
10.0000024409
10.0000025495
10.0000025547
10.0000026829
10.0000026586
10.0000028077
10.0000027528
10.0000029166
10.0000028386
10.0000029999
10.0000029159
10.0000030501
10.0000029805
10.0000030664
10.0000030221
10.0000030546
10.0000030285
10.0000030198
10.0000029926
10.0000029573
10.0000029123
10.0000028547
10.0000027853
10.0000027042
10.0000026139
10.0000025188
10.0000024256
10.0000023436
10.0000022824
10.0000022512
10.0000022565
10.0000022997
10.000002377
10.00000248
10.0000025988
10.000002725
10.0000028527
10.0000029784
10.0000031003
10.0000032174
10.0000033289
10.0000034346
10.0000035344
10.0000036283
10.0000037167
10.0000037999
10.000003878
10.0000039515
10.0000040203
10.0000040847
10.000004145
10.0000042015
10.0000042548
10.0000043054
10.000004354
10.0000044011
10.0000044474
10.0000044933
10.0000045391
10.0000045853
10.0000046319
10.0000046793
10.0000047274
10.0000047762
10.0000048258
10.0000048761
10.000004927
10.0000049785
10.0000050303
10.0000050824
10.0000051346
10.0000051869
10.0000052389
10.0000052906
10.0000053418
10.0000053922
10.0000054418
10.0000054902
10.0000055372
10.0000055828
10.0000056263
10.000005668
10.0000057068
10.0000057437
10.0000057764
10.0000058076
10.0000058324
10.000005857
10.0000058714
10.0000058886
10.0000058893
10.0000059
10.0000058879
10.0000058985
10.0000000066
10.0000000929
10.0000001752
10.0000002543
10.0000003329
10.0000004104
10.0000004864
10.0000005611
10.0000006345
10.000000707
10.0000007789
10.0000008504
10.0000009218
10.0000009931
10.0000010645
10.0000011362
10.0000012079
10.0000012801
10.000001352
10.0000014247
10.0000014965
10.0000015699
10.000001641
10.0000017153
10.0000017847
10.0000018608
10.0000019268
10.0000020065
10.0000020662
10.0000021527
10.0000022013
10.0000023006
10.00000233
10.0000024517
10.0000024495
10.0000026072
10.0000025566
10.0000027674
10.0000026492
10.0000029284
10.0000027285
10.0000030796
10.0000028015
10.0000032021
10.0000028798
10.0000032748
10.0000029713
10.0000032873
10.0000030673
10.0000032521
10.0000031379
10.0000031959
10.0000031502
10.0000031294
10.0000030897
10.000003031
10.0000029589
10.0000028694
10.0000027655
10.0000026514
10.0000025375
10.000002436
10.0000023586
10.000002319
10.0000023256
10.0000023807
10.0000024766
10.0000026011
10.0000027402
10.0000028833
10.0000030234
10.0000031569
10.0000032822
10.0000033983
10.0000035051
10.0000036025
10.0000036914
10.0000037723
10.0000038467
10.0000039153
10.0000039793
10.0000040389
10.0000040946
10.0000041466
10.0000041953
10.0000042411
10.0000042844
10.0000043257
10.0000043656
10.0000044046
10.0000044434
10.0000044824
10.0000045219
10.0000045622
10.0000046035
10.0000046457
10.0000046891
10.0000047335
10.0000047789
10.0000048251
10.0000048722
10.0000049198
10.0000049679
10.0000050163
10.0000050648
10.0000051133
10.0000051617
10.0000052096
10.0000052571
10.0000053037
10.0000053493
10.0000053937
10.0000054367
10.000005478
10.0000055173
10.0000055545
10.000005589
10.0000056212
10.0000056494
10.0000056757
10.0000056958
10.0000057154
10.0000057249
10.0000057372
10.0000057329
10.0000057387
10.0000057212
10.0000057259
10.0000000076
10.000000096
10.0000001808
10.0000002612
10.0000003409
10.0000004195
10.0000004967
10.0000005725
10.0000006472
10.0000007208
10.0000007937
10.0000008661
10.0000009381
10.0000010101
10.0000010818
10.0000011539
10.0000012256
10.0000012981
10.0000013698
10.0000014428
10.0000015143
10.0000015882
10.0000016587
10.0000017343
10.0000018026
10.0000018811
10.000001945
10.0000020294
10.0000020849
10.0000021805
10.0000022201
10.0000023367
10.0000023474
10.0000025018
10.0000024617
10.0000026811
10.0000025558
10.0000028799
10.0000026223
10.0000031004
10.0000026575
10.0000033345
10.0000026706
10.0000035546
10.0000026908
10.0000037111
10.0000027639
10.0000037511
10.0000029177
10.0000036642
10.0000031193
10.0000035079
10.0000032758
10.0000033612
10.0000033004
10.0000032403
10.0000031754
10.0000030754
10.0000029538
10.0000028153
10.0000026806
10.0000025527
10.0000024469
10.0000023893
10.0000023941
10.0000024568
10.0000025638
10.0000027005
10.0000028541
10.0000030136
10.0000031706
10.0000033186
10.0000034544
10.000003576
10.000003683
10.0000037763
10.0000038572
10.0000039277
10.0000039899
10.0000040458
10.0000040968
10.0000041436
10.0000041869
10.0000042271
10.0000042645
10.0000042996
10.0000043327
10.0000043646
10.0000043956
10.0000044263
10.0000044572
10.0000044888
10.0000045215
10.0000045556
10.000004591
10.000004628
10.0000046664
10.0000047063
10.0000047475
10.0000047898
10.0000048332
10.0000048774
10.0000049222
10.0000049675
10.0000050131
10.0000050587
10.0000051043
10.0000051494
10.0000051942
10.000005238
10.0000052811
10.0000053226
10.0000053631
10.0000054012
10.0000054381
10.0000054718
10.000005504
10.0000055322
10.0000055581
10.0000055797
10.0000055977
10.0000056115
10.000005619
10.0000056238
10.0000056177
10.0000056136
10.0000055936
10.0000055842
10.0000000072
10.0000000971
10.0000001831
10.0000002652
10.0000003466
10.0000004268
10.0000005056
10.0000005829
10.000000659
10.0000007341
10.0000008082
10.0000008817
10.0000009547
10.0000010276
10.0000011
10.0000011728
10.000001245
10.000001318
10.0000013901
10.0000014638
10.0000015354
10.0000016102
10.0000016808
10.0000017576
10.0000018259
10.0000019065
10.0000019701
10.0000020579
10.0000021121
10.0000022137
10.0000022498
10.0000023774
10.0000023789
10.0000025552
10.0000024917
10.0000027566
10.0000025757
10.0000029957
10.0000026123
10.0000032893
10.0000025811
10.0000036484
10.0000024726
10.0000040584
10.0000023167
10.0000044469
10.0000022086
10.0000046794
10.0000022853
10.0000046238
10.0000026171
10.0000042814
10.000003088
10.0000038293
10.0000034355
10.000003477
10.0000034293
10.0000032721
10.0000031177
10.000002962
10.0000028049
10.0000025853
10.0000024041
10.0000023487
10.0000023745
10.000002406
10.0000024317
10.0000024957
10.0000026342
10.0000028443
10.0000030915
10.0000033367
10.0000035538
10.000003732
10.0000038722
10.0000039799
10.0000040621
10.0000041253
10.0000041753
10.0000042163
10.0000042515
10.0000042826
10.0000043106
10.000004336
10.0000043595
10.0000043813
10.0000044021
10.0000044224
10.0000044428
10.0000044637
10.0000044857
10.000004509
10.0000045342
10.0000045613
10.0000045905
10.0000046218
10.0000046551
10.0000046903
10.0000047273
10.0000047658
10.0000048056
10.0000048466
10.0000048886
10.0000049311
10.0000049743
10.0000050175
10.0000050611
10.0000051039
10.0000051472
10.0000051885
10.0000052305
10.0000052693
10.0000053092
10.0000053439
10.0000053808
10.0000054098
10.0000054428
10.000005464
10.0000054918
10.0000055027
10.0000055235
10.000005521
10.0000055321
10.000005512
10.0000055096
10.0000054676
10.0000054497
10.000005383
10.000000008
10.0000000998
10.0000001878
10.0000002711
10.0000003533
10.0000004344
10.0000005142
10.0000005928
10.0000006701
10.0000007463
10.0000008216
10.0000008963
10.0000009703
10.0000010442
10.0000011175
10.0000011911
10.000001264
10.0000013378
10.0000014105
10.0000014848
10.0000015571
10.0000016326
10.000001704
10.0000017815
10.0000018512
10.0000019323
10.0000019982
10.000002086
10.0000021444
10.0000022446
10.000002288
10.0000024117
10.0000024254
10.0000025938
10.0000025488
10.0000028026
10.0000026424
10.0000030587
10.0000026776
10.0000033963
10.0000026081
10.0000038639
10.0000023755
10.000004506
10.0000019475
10.0000053038
10.0000013958
10.0000060875
10.0000009766
10.0000065075
10.0000010586
10.0000062372
10.0000017972
10.0000053045
10.0000028973
10.0000041084
10.0000036966
10.0000033662
10.0000033605
10.0000032769
10.0000028672