/*--------------------------------*- C++ -*----------------------------------*\
  =========                 |
  \\      /  F ield         | OpenFOAM: The Open Source CFD Toolbox
   \\    /   O peration     | Website:  https://openfoam.org
    \\  /    A nd           | Version:  7
     \\/     M anipulation  |
\*---------------------------------------------------------------------------*/
FoamFile
{
    version     2.0;
    format      ascii;
    class       volScalarField;
    location    "3540";
    object      p;
}
// * * * * * * * * * * * * * * * * * * * * * * * * * * * * * * * * * * * * * //

dimensions      [0 2 -2 0 0 0 0];

internalField   nonuniform List<scalar> 
8192
(
0.000539690503689
0.000368131882448
0.000282493015654
0.000238348176648
0.000213289325132
0.000198019002606
0.000188120887169
0.000181351191542
0.000176503283963
0.000172893109191
0.000170113128916
0.00016790917877
0.000166116111872
0.000164622708075
0.000163351732471
0.000162248143919
0.000161271856941
0.000160393142206
0.000159589609972
0.000158844174614
0.000158143645654
0.000157477730017
0.000156838310875
0.000156218916716
0.00015561432363
0.000155020252493
0.000154433134466
0.000153849926162
0.000153267960882
0.000152684826007
0.00015209825875
0.000151506054577
0.000150905983888
0.000150295712888
0.000149672725119
0.000149034240933
0.0001483771323
0.000147697830877
0.000146992227407
0.000146255561235
0.000145482299161
0.00014466600417
0.000143799195748
0.000142873205942
0.000141878037812
0.000140802237077
0.000139632792049
0.000138355082859
0.000136952906502
0.000135408610142
0.000133703368574
0.000131817642387
0.000129731847397
0.000127427252661
0.000124887100545
0.000122097909621
0.000119050880164
0.000115743280173
0.000112179653506
0.000108372673791
0.000104343477131
0.000100121353659
9.57427611264e-05
9.12497331479e-05
8.66878619915e-05
8.21041098225e-05
7.75447153654e-05
7.30534115511e-05
6.86700655752e-05
6.44297546543e-05
6.03622163411e-05
5.64915771489e-05
5.28362700095e-05
4.94090843032e-05
4.6217329206e-05
4.32631182295e-05
4.05437898516e-05
3.80524694538e-05
3.57787562333e-05
3.37094972446e-05
3.18295950208e-05
3.0122791755e-05
2.85723793737e-05
2.71617997709e-05
2.58751162813e-05
2.46973541528e-05
2.36147197119e-05
2.2614716185e-05
2.16861770781e-05
2.08192385736e-05
2.00052698594e-05
1.92367775919e-05
1.85072967561e-05
1.78112773529e-05
1.71439730646e-05
1.65013362227e-05
1.58799212264e-05
1.52767977418e-05
1.46894737117e-05
1.41158280679e-05
1.35540522738e-05
1.30026000593e-05
1.24601442234e-05
1.19255397855e-05
1.13977924028e-05
1.08760314396e-05
1.03594867567e-05
9.8474687694e-06
9.33935102158e-06
8.83455500744e-06
8.33253668654e-06
7.83277464725e-06
7.33475964235e-06
6.83798582031e-06
6.34194391158e-06
5.84611750494e-06
5.34998396571e-06
4.85302325051e-06
4.35473976107e-06
3.85470675939e-06
3.35264981177e-06
2.84860002394e-06
2.34317510729e-06
1.8381044876e-06
1.33724492586e-06
8.48658199621e-07
3.89716824418e-07
4.70180101924e-08
0.000390785761944
0.000327262837718
0.00027755444992
0.000244877702541
0.000222928632575
0.00020771935804
0.000196872752202
0.000188924888642
0.000182951044886
0.000178353073675
0.000174734960961
0.000171828459478
0.000169447821716
0.000167461729269
0.000165775544947
0.000164319864366
0.000163042979823
0.000161905818972
0.00016087847867
0.000159937806559
0.00015906568358
0.000158247783876
0.000157472665253
0.000156731092254
0.000156015525136
0.000155319728777
0.000154638469064
0.000153967273695
0.000153302240487
0.000152639880856
0.000151976988752
0.000151310528051
0.000150637533184
0.000149955018155
0.000149259890061
0.000148548864197
0.000147818378154
0.00014706450291
0.000146282849235
0.000145468468489
0.0001446157474
0.000143718297627
0.000142768842026
0.00014175910156
0.000140679688937
0.000139520018322
0.000138268243881
0.000136911244367
0.000135434675093
0.000133823112866
0.000132060321681
0.000130129666871
0.00012801470014
0.000125699926814
0.000123171747498
0.000120419540081
0.000117436815708
0.000114222349202
0.00011078115605
0.000107125173882
0.000103273513935
9.92521851739e-05
9.50932604678e-05
9.08335429143e-05
8.65128788399e-05
8.21723253384e-05
7.78523923077e-05
7.35915380654e-05
6.94250080447e-05
6.53840277636e-05
6.14953033199e-05
5.77807525636e-05
5.4257397091e-05
5.09373719258e-05
4.78280390259e-05
4.49322113404e-05
4.22484986998e-05
3.97717779215e-05
3.74937717038e-05
3.54037033243e-05
3.34889818668e-05
3.17358702615e-05
3.01300940938e-05
2.86573614111e-05
2.73037775444e-05
2.60561523595e-05
2.49022070812e-05
2.38306944831e-05
2.28314488421e-05
2.18953826416e-05
2.10144452709e-05
2.01815569303e-05
1.93905280228e-05
1.86359720693e-05
1.79132176706e-05
1.72182234917e-05
1.65474985348e-05
1.58980291738e-05
1.52672133837e-05
1.4652802344e-05
1.40528489864e-05
1.34656631169e-05
1.28897723739e-05
1.23238885003e-05
1.17668781574e-05
1.1217737794e-05
1.06755718844e-05
1.01395741654e-05
9.60901132222e-06
9.08320891001e-06
8.56153914346e-06
8.04341055506e-06
7.52825942919e-06
7.0155433743e-06
6.5047374504e-06
5.99533395096e-06
5.48684735886e-06
4.97882725346e-06
4.47088329111e-06
3.96272912861e-06
3.45425594482e-06
2.94565301997e-06
2.4376035312e-06
1.93160299211e-06
1.43048115613e-06
9.39294816721e-07
4.66506136735e-07
8.085073856e-08
0.000307861837245
0.000285181314456
0.000259170000047
0.000237910818828
0.000221768500426
0.000209435686859
0.000199894033604
0.000192416605247
0.000186481787941
0.000181710592104
0.000177824810714
0.000174618419149
0.000171937564056
0.000169666373801
0.00016771682259
0.000166021451051
0.000164528109414
0.000163196137075
0.000161993565547
0.000160895053925
0.00015988035159
0.000158933143079
0.000158040171944
0.000157190569928
0.00015637533831
0.000155586942927
0.000154818994516
0.000154065993523
0.000153323123604
0.000152586082165
0.000151850938129
0.000151114010336
0.000150371761524
0.000149620702868
0.000148857305219
0.000148077914352
0.00014727866769
0.000146455410703
0.000145603611424
0.000144718272313
0.000143793839108
0.000142824107418
0.000141802128649
0.000140720118627
0.000139569373872
0.000138340203231
0.00013702188518
0.000135602664865
0.000134069808242
0.000132409734452
0.000130608249575
0.000128650905464
0.000126523503473
0.000124212754395
0.000121707090083
0.000118997600198
0.000116079039154
0.000112950818672
0.000109617874375
0.000106091279622
0.000102388482557
9.85330723854e-05
9.45540394843e-05
9.04845770903e-05
8.6360558615e-05
8.22188862216e-05
7.80959192923e-05
7.40261517528e-05
7.00412107116e-05
6.61691751156e-05
6.24341632189e-05
5.88561101661e-05
5.54506704045e-05
5.22292094885e-05
4.91988792546e-05
4.63627895618e-05
4.37202921076e-05
4.12673813209e-05
3.89971985279e-05
3.69006082325e-05
3.49668036828e-05
3.3183897452e-05
3.15394588229e-05
3.00209719304e-05
2.86162013705e-05
2.73134641024e-05
2.6101814627e-05
2.49711559531e-05
2.39122905595e-05
2.29169258888e-05
2.1977647101e-05
2.10878681428e-05
2.02417695889e-05
1.94342299977e-05
1.86607553436e-05
1.79174099808e-05
1.72007510705e-05
1.65077679023e-05
1.5835826546e-05
1.5182620193e-05
1.45461248925e-05
1.39245605583e-05
1.33163566647e-05
1.27201223447e-05
1.21346202529e-05
1.15587439057e-05
1.09914979117e-05
1.04319808826e-05
9.87937053994e-06
9.3329109282e-06
8.79190139501e-06
8.25568741887e-06
7.72365315879e-06
7.19521607677e-06
6.6698238672e-06
6.14695452877e-06
5.62612048189e-06
5.10687849722e-06
4.58884764425e-06
4.07173886839e-06
3.55540104041e-06
3.03989092753e-06
2.52557771715e-06
2.01329813751e-06
1.50458338921e-06
1.00193298694e-06
5.08619640479e-07
9.01199289749e-08
0.000263345413032
0.000254935863128
0.000240718867669
0.000226901496022
0.000215449092583
0.000206152041569
0.000198558430965
0.000192300541867
0.000187100530502
0.00018274595554
0.000179071062178
0.000175944717706
0.00017326236944
0.00017094029402
0.000168911250824
0.000167121093898
0.000165526095965
0.000164090826201
0.000162786466345
0.00016158947491
0.000160480527278
0.000159443673667
0.000158465668684
0.000157535435767
0.000156643637533
0.000155782329302
0.000154944677864
0.000154124731457
0.000153317229814
0.000152517445821
0.000151721050513
0.000150923996797
0.000150122418072
0.000149312536901
0.000148490580623
0.000147652701634
0.000146794900148
0.000145912947817
0.000145002310826
0.000144058071671
0.000143074849234
0.000142046717534
0.000140967124335
0.000139828812048
0.000138623744816
0.000137343047793
0.000135976967051
0.000134514861718
0.000132945243344
0.000131255881169
0.000129433994869
0.000127466557954
0.000125340733128
0.000123044454555
0.000120567158657
0.000117900644711
0.000115040019165
0.000111984646961
0.000108739003788
0.000105313302988
0.000101723767786
9.79924434426e-05
9.41465009812e-05
9.02170721446e-05
8.62377534925e-05
8.22429891287e-05
7.82665582674e-05
7.43403478479e-05
7.0493468939e-05
6.67516949069e-05
6.31371530471e-05
5.96681731711e-05
5.63592224559e-05
5.32208948505e-05
5.02599589781e-05
4.74794889087e-05
4.48791028808e-05
4.24553203769e-05
4.02020254533e-05
3.81110037946e-05
3.61725087226e-05
3.43758104887e-05
3.27096911501e-05
3.11628607255e-05
2.97242840735e-05
2.83834196533e-05
2.71303789657e-05
2.59560197321e-05
2.48519868684e-05
2.38107147155e-05
2.28254020359e-05
2.18899692827e-05
2.09990053544e-05
2.01477093098e-05
1.93318307988e-05
1.85476118802e-05
1.77917318041e-05
1.7061255799e-05
1.6353588259e-05
1.56664305349e-05
1.49977431616e-05
1.43457123561e-05
1.37087203983e-05
1.30853196063e-05
1.24742094719e-05
1.18742166701e-05
1.12842775415e-05
1.07034228197e-05
1.01307642793e-05
9.56548315983e-06
9.00682014583e-06
8.45406687104e-06
7.90655886279e-06
7.36367005751e-06
6.82480900302e-06
6.28941713355e-06
5.75696956471e-06
5.22697923822e-06
4.69900548198e-06
4.172668714e-06
3.6476737316e-06
3.12384547497e-06
2.60118286397e-06
2.07993728856e-06
1.56070997236e-06
1.04447042782e-06
5.31957987419e-07
9.1594163719e-08
0.000235768552441
0.000233767509103
0.000225936123337
0.000216714044581
0.000208406895775
0.000201352544336
0.000195394330271
0.00019032710233
0.000185982575017
0.00018223105309
0.000178971213807
0.000176121742508
0.000173615956923
0.000171398443318
0.000169422832414
0.000167650199405
0.000166047822549
0.000164588170988
0.000163248058316
0.000162007927913
0.000160851248538
0.000159764004095
0.000158734263932
0.000157751821719
0.000156807892216
0.00015589485657
0.000155006047931
0.000154135570354
0.000153278144924
0.000152428978609
0.000151583649224
0.000150738004956
0.000149888076022
0.000149029994001
0.000148159916865
0.000147273958002
0.000146368117505
0.000145438214327
0.000144479818113
0.0001434881799
0.000142458161154
0.000141384161204
0.000140260043685
0.000139079063634
0.00013783379803
0.000136516084409
0.000135116974377
0.000133626711885
0.000132034749676
0.000130329821438
0.00012850009121
0.000126533404639
0.000124417667063
0.000122141369118
0.000119694269193
0.000117068222356
0.000114258117005
0.000111262846766
0.000108086210614
0.000104737606959
0.000101232376449
9.75916659459e-05
9.38417438824e-05
9.00127978581e-05
8.61373667779e-05
8.22486518841e-05
7.83789738024e-05
7.4558584174e-05
7.08148765052e-05
6.71719445292e-05
6.36503915217e-05
6.02672645962e-05
5.7036031769e-05
5.39665733855e-05
5.10652048309e-05
4.83347708275e-05
4.57748496964e-05
4.33820852099e-05
4.11506345529e-05
3.90726956006e-05
3.7139062824e-05
3.5339661412e-05
3.36640200777e-05
3.21016592389e-05
3.06423869267e-05
2.92765069687e-05
2.79949511991e-05
2.67893506184e-05
2.56520603945e-05
2.45761520434e-05
2.35553836449e-05
2.25841565908e-05
2.16574650457e-05
2.07708425771e-05
1.99203088918e-05
1.91023186425e-05
1.83137134041e-05
1.75516774721e-05
1.68136976692e-05
1.6097527195e-05
1.5401153312e-05
1.47227686549e-05
1.40607458183e-05
1.34136149483e-05
1.27800439752e-05
1.21588212308e-05
1.1548840124e-05
1.0949085668e-05
1.03586225917e-05
9.776584889e-06
9.20216660751e-06
8.63461380134e-06
8.07321752708e-06
7.5173078962e-06
6.96624916999e-06
6.41943604504e-06
5.87629130185e-06
5.33626523762e-06
4.79883747907e-06
4.26352226587e-06
3.72987882876e-06
3.19752930021e-06
2.66618651911e-06
2.1356894559e-06
1.60601846726e-06
1.07716249153e-06
5.48445363208e-07
9.18158687362e-08
0.000217462091906
0.000218314860851
0.000214234029166
0.0002080672794
0.000201945903333
0.000196491432233
0.000191754155245
0.000187638929938
0.000184038925158
0.000180865441922
0.000178048935236
0.00017553446301
0.000173277491453
0.000171240998672
0.000169393626525
0.000167708499934
0.000166162434022
0.000164735359875
0.000163409875739
0.000162170875267
0.000161005228413
0.000159901502662
0.000158849717899
0.000157841130697
0.000156868044779
0.000155923644791
0.000155001850658
0.000154097189914
0.000153204685486
0.000152319757594
0.000151438134055
0.000150555770538
0.000149668779653
0.000148773364403
0.000147865755449
0.000146942150967
0.000145998657815
0.000145031232858
0.00014403562345
0.000143007306227
0.000141941423576
0.000140832717472
0.000139675460828
0.000138463387183
0.000137189620592
0.000135846609063
0.000134426067003
0.000132918935088
0.00013131536978
0.000129604779497
0.000127775929698
0.000125817144065
0.000123716631753
0.000121462968907
0.000119045753112
0.000116456429871
0.00011368925977
0.000110742356286
0.000107618682537
0.000104326858611
0.000100881609694
9.73036941695e-05
9.36192094139e-05
8.98582927114e-05
8.60533929103e-05
8.2237414546e-05
7.84420688777e-05
7.46966859819e-05
7.10275150412e-05
6.74574179903e-05
6.40058177093e-05
6.06887331826e-05
5.75188036474e-05
5.45052784856e-05
5.16540082114e-05
4.89674988508e-05
4.64450858704e-05
4.40832540473e-05
4.18760908967e-05
3.98158289258e-05
3.78934158784e-05
3.60990544794e-05
3.44226685644e-05
3.28542730688e-05
3.1384243908e-05
3.00034968711e-05
2.87035913735e-05
2.74767768131e-05
2.63159979253e-05
2.52148728343e-05
2.41676543058e-05
2.31691819076e-05
2.22148303528e-05
2.13004575615e-05
2.04223545946e-05
1.95771987498e-05
1.8762010426e-05
1.79741140101e-05
1.72111027226e-05
1.64708072625e-05
1.57512679483e-05
1.5050710068e-05
1.43675220858e-05
1.37002364119e-05
1.30475124097e-05
1.24081213845e-05
1.17809332762e-05
1.11649048535e-05
1.05590691797e-05
9.96252619878e-06
9.37443426017e-06
8.79400247617e-06
8.22048377933e-06
7.65316862584e-06
7.09137927868e-06
6.53446470588e-06
5.9817961625e-06
5.43276369906e-06
4.88677398038e-06
4.34325009644e-06
3.80163421089e-06
3.26139367483e-06
2.72202890585e-06
2.18307225963e-06
1.6440375312e-06
1.10420271421e-06
5.61989184878e-07
9.22875560116e-08
0.000204618015824
0.00020669098925
0.00020484920802
0.000200796094933
0.000196280366531
0.000192018010224
0.000188197857362
0.000184813960984
0.000181808721287
0.000179121542696
0.00017670129115
0.000174507097028
0.000172506301553
0.000170672286204
0.000168982825761
0.000167418965807
0.000165964283015
0.000164604393333
0.000163326611604
0.00016211970139
0.000160973678701
0.000159879649109
0.000158829666989
0.000157816610845
0.000156834071411
0.000155876250595
0.000154937869956
0.000154014087723
0.000153100423363
0.0001521926899
0.00015128692885
0.000150379351054
0.000149466283657
0.000148544118243
0.000147609260932
0.000146658083512
0.000145686874687
0.000144691790504
0.00014366880309
0.00014261364682
0.000141521761168
0.000140388229606
0.000139207714198
0.000137974386028
0.000136681852354
0.00013532308266
0.000133890337731
0.000132375108743
0.000130768077508
0.000129059114446
0.000127237337594
0.000125291263028
0.000123209082835
0.000120979108024
0.000118590406528
0.000116033646964
0.000113302125377
0.0001103929071
0.000107307964993
0.00010405514689
0.000100648769733
9.71096334387e-05
9.3464303946e-05
8.97436595149e-05
8.59809075031e-05
8.22094596003e-05
7.84611021739e-05
7.47647818382e-05
7.11460085122e-05
6.76267176171e-05
6.42253904691e-05
6.09572096935e-05
5.78341326441e-05
5.48648692824e-05
5.20548265481e-05
4.94061118298e-05
4.69176751772e-05
4.45856271804e-05
4.24037170002e-05
4.03639130822e-05
3.84570103825e-05
3.66731938316e-05
3.50025098592e-05
3.34352246195e-05
3.19620700064e-05
3.05743927032e-05
2.92642274798e-05
2.80243161276e-05
2.68480904018e-05
2.57296332309e-05
2.46636284411e-05
2.36453059152e-05
2.26703865765e-05
2.17350298001e-05
2.08357846403e-05
1.99695454871e-05
1.91335122779e-05
1.83251551116e-05
1.75421829598e-05
1.67825160974e-05
1.60442618562e-05
1.53256933106e-05
1.46252305303e-05
1.39414240626e-05
1.32729403424e-05
1.26185487602e-05
1.19771101458e-05
1.13475664573e-05
1.07289314844e-05
1.01202823991e-05
9.52075200472e-06
8.92952154987e-06
8.34581399319e-06
7.76888762353e-06
7.19802996482e-06
6.63255193456e-06
6.07178227267e-06
5.51506233046e-06
4.9617413711e-06
4.41117253162e-06
3.86270928116e-06
3.31570095563e-06
2.76948202873e-06
2.22333906963e-06
1.67641358278e-06
1.1274514127e-06
5.7427785858e-07
9.37533133846e-08
0.000195188517002
0.000197719852073
0.000197222909798
0.000194650868377
0.000191350906605
0.000188016558952
0.00018491238132
0.0001821001253
0.000179565103144
0.000177271508465
0.000175182811611
0.000173267656507
0.000171500486923
0.000169860615488
0.000168331078265
0.000166897678715
0.000165548284781
0.000164272338482
0.000163060519029
0.000161904509023
0.000160796827163
0.000159730703004
0.000158699978202
0.000157699024722
0.000156722674255
0.000155766155487
0.000154825037176
0.000153895175824
0.000152972667341
0.000152053802291
0.000151135021192
0.000150212872585
0.000149283975426
0.000148344980418
0.000147392531804
0.000146423228921
0.000145433586788
0.000144419994962
0.000143378673833
0.000142305627468
0.000141196592082
0.000140046979212
0.000138851812756
0.000137605659315
0.000136302551769
0.000134935907061
0.000133498440834
0.000131982084421
0.000130377913956
0.000128676107641
0.000126865955386
0.000124935954817
0.000122874036898
0.000120667969718
0.000118305984838
0.000115777651548
0.000113074987209
0.000110193738797
0.000107134708547
0.000103904934074
0.000100518479868
9.69965717562e-05
9.33668526416e-05
8.96617118641e-05
8.5915934361e-05
8.21641839062e-05
7.84389093984e-05
7.47690863015e-05
7.11797571296e-05
6.76921179458e-05
6.43238595761e-05
6.1089468112e-05
5.80003468407e-05
5.50647636961e-05
5.22877248649e-05
4.96709086154e-05
4.72127697832e-05
4.49088643853e-05
4.27523724068e-05
4.07347420238e-05
3.88463570186e-05
3.70771410141e-05
3.5417044049e-05
3.38563924796e-05
3.23861104713e-05
3.0997836544e-05
2.96839631625e-05
2.84376252285e-05
2.72526580635e-05
2.61235397573e-05
2.50453277127e-05
2.40135954446e-05
2.30243729878e-05
2.20740925624e-05
2.11595400448e-05
2.02778122075e-05
1.94262793347e-05
1.86025527034e-05
1.78044563445e-05
1.70300025411e-05
1.62773705323e-05
1.55448879716e-05
1.48310147174e-05
1.41343286132e-05
1.34535129348e-05
1.27873452516e-05
1.21346874584e-05
1.14944767885e-05
1.08657176208e-05
1.02474739365e-05
9.63886227392e-06
9.03904506743e-06
8.44722424727e-06
7.86263500875e-06
7.28453965365e-06
6.7122214395e-06
6.1449783611e-06
5.58211679559e-06
5.02294483834e-06
4.46676489932e-06
3.91286434408e-06
3.36050104526e-06
2.80887610333e-06
2.25707597383e-06
1.7039473179e-06
1.14784411327e-06
5.86196303655e-07
9.66427787626e-08
0.000188005407353
0.000190642821577
0.000190952938871
0.000189423078791
0.000187054744433
0.000184462136679
0.000181937135141
0.000179586502426
0.000177430612173
0.000175456192133
0.000173640319307
0.000171959946541
0.000170394969812
0.00016892869924
0.000167547439529
0.000166239873602
0.000164996498395
0.000163809178628
0.000162670816085
0.000161575111605
0.000160516395114
0.000159489503186
0.000158489688821
0.00015751255266
0.00015655398836
0.000155610137303
0.000154677349504
0.000153752148707
0.000152831201087
0.000151911285028
0.000150989260951
0.000150062042272
0.000149126569283
0.000148179781052
0.000147218586826
0.000146239836327
0.000145240288356
0.000144216576979
0.000143165174485
0.000142082350158
0.000140964123778
0.000139806212612
0.000138603970588
0.000137352318354
0.000136045663185
0.000134677808351
0.000133241853004
0.000131730086221
0.000130133883258
0.000128443618973
0.00012664862326
0.000124737216049
0.000122696873183
0.000120514585027
0.000118177470058
0.000115673687685
0.00011299365314
0.000110131494285
0.000107086614445
0.000103865146641
0.000100481008891
9.69562130104e-05
9.33201010013e-05
8.96073870864e-05
8.58552948715e-05
8.21004883337e-05
7.83766130572e-05
7.4712986595e-05
7.11343391389e-05
6.76612091367e-05
6.43105725677e-05
6.10963189198e-05
5.80294159286e-05
5.5117797606e-05
5.23661315215e-05
4.97756555007e-05
4.7344234238e-05
4.50666999995e-05
4.29354441281e-05
4.09411541343e-05
3.90735671475e-05
3.73221320193e-05
3.56765185812e-05
3.41269595999e-05
3.26644440967e-05
3.12807963661e-05
2.99686771645e-05
2.87215380538e-05
2.75335518531e-05
2.63995344332e-05
2.53148670381e-05
2.42754240265e-05
2.32775082107e-05
2.2317794331e-05
2.1393280348e-05
2.05012458013e-05
1.96392163601e-05
1.88049336627e-05
1.79963296371e-05
1.72115045641e-05
1.6448708269e-05
1.57063239024e-05
1.49828538751e-05
1.42769075642e-05
1.35871904895e-05
1.29124946877e-05
1.22516900749e-05
1.16037165975e-05
1.09675770203e-05
1.03423301972e-05
9.72708470899e-06
9.12099273833e-06
8.52324408458e-06
7.93306019961e-06
7.34968814486e-06
6.7723943331e-06
6.20045789705e-06
5.63316340718e-06
5.06979245518e-06
4.50961310053e-06
3.95186512244e-06
3.39573674775e-06
2.84032403675e-06
2.28455584732e-06
1.72705510756e-06
1.16589849408e-06
5.9825982582e-07
1.01240678068e-07
0.000182370069727
0.000184955401516
0.000185746195424
0.00018495055761
0.000183298456329
0.000181305992998
0.000179260543976
0.000177293803169
0.000175452118598
0.000173741527881
0.00017215180855
0.000170667904095
0.000169274770906
0.000167959093545
0.000166709630258
0.000165517028768
0.00016437348795
0.000163272419105
0.000162208159522
0.000161175747972
0.000160170755435
0.000159189159815
0.000158227253656
0.000157281575665
0.000156348859016
0.000155425991211
0.000154509981803
0.000153597935331
0.000152687029106
0.00015177449071
0.000150857576591
0.000149933551819
0.000148999671489
0.00014805316027
0.000147091190978
0.000146110861669
0.000145109170658
0.000144082988755
0.000143029027885
0.00014194380503
0.000140823600248
0.000139664407222
0.000138461874534
0.000137211235644
0.000135907225464
0.000134543981705
0.000133114930159
0.000131612655347
0.000130028762241
0.000128353742248
0.00012657686814
0.000124686158753
0.000122668473447
0.000120509813965
0.00011819591818
0.000115713214728
0.000113050161162
0.000110198912944
0.000107157178722
0.000103930021231
0.000100531262514
9.69840481532e-05
9.33200931329e-05
8.95773561165e-05
8.5796471378e-05
8.20169083004e-05
7.82740187858e-05
7.45976854596e-05
7.10123653149e-05
6.75379179025e-05
6.41906124503e-05
6.09838143655e-05
5.79281785794e-05
5.50314343646e-05
5.2297995954e-05
4.97286640923e-05
4.73206206416e-05
4.50677974609e-05
4.29615675778e-05
4.09916119097e-05
3.91467891969e-05
3.74158738884e-05
3.57880935299e-05
3.42534596809e-05
3.28029259736e-05
3.14284220176e-05
3.01228098847e-05
2.8879799902e-05
2.7693850853e-05
2.65600697945e-05
2.54741195113e-05
2.44321370203e-05
2.34306638257e-05
2.24665872425e-05
2.15370914869e-05
2.06396170771e-05
1.97718271412e-05
1.89315793923e-05
1.81169027138e-05
1.73259774807e-05
1.65571188993e-05
1.58087627872e-05
1.50794533225e-05
1.4367832383e-05
1.36726301677e-05
1.29926568482e-05
1.23267950413e-05
1.16739929315e-05
1.10332578933e-05
1.04036504843e-05
9.7842786944e-06
9.1742923398e-06
8.57287749347e-06
7.97925083489e-06
7.39265377979e-06
6.81234620434e-06
6.23759948876e-06
5.66768842832e-06
5.10188122305e-06
4.53942610567e-06
3.97953193644e-06
3.42133780991e-06
2.86386272724e-06
2.30592019674e-06
1.74597560906e-06
1.18192373275e-06
6.1078712167e-07
1.07738861431e-07
0.000177846329774
0.000180313638449
0.000181385372806
0.000181107062327
0.00018000549829
0.000178500548408
0.000176857066458
0.000175216175655
0.000173641370701
0.000172154005729
0.000170755103215
0.000169437196869
0.000168190201936
0.000167004055634
0.000165869731189
0.000164779487785
0.000163726795006
0.000162706143696
0.000161712839162
0.00016074281542
0.000159792482213
0.000158858604717
0.00015793821136
0.000157028524057
0.000156126905552
0.000155230819365
0.000154337798825
0.000153445422364
0.000152551295129
0.000151653029984
0.000150748230081
0.000149834474225
0.000148909302569
0.000147970201119
0.000147014585246
0.000146039781663
0.000145043008282
0.000144021351211
0.000142971738017
0.000141890906108
0.000140775364811
0.000139621349305
0.000138424764138
0.000137181113552
0.000135885415383
0.000134532095156
0.000133114857372
0.000131626532715
0.000130058903833
0.000128402520043
0.000126646524378
0.000124778536142
0.000122784657973
0.000120649703301
0.00011835775655
0.000115893167496
0.000113242029398
0.0001103940993
0.00010734500743
0.000104098489585
0.000100668252512
9.70789141693e-05
9.33653241134e-05
8.95697804216e-05
8.57374895107e-05
8.19116432227e-05
7.81298028732e-05
7.44225415228e-05
7.08139525473e-05
6.73230858903e-05
6.39654494369e-05
6.07539435555e-05
5.76990548101e-05
5.4808473039e-05
5.20864756559e-05
4.95334430251e-05
4.7145772954e-05
4.49162951531e-05
4.2835104134e-05
4.08906034493e-05
3.90705292738e-05
3.73627831037e-05
3.57559998986e-05
3.42398604665e-05
3.28052031322e-05
3.14440020291e-05
3.01492709622e-05
2.89149355571e-05
2.77357004482e-05
2.66069259248e-05
2.55245202766e-05
2.44848492608e-05
2.34846616491e-05
2.25210287498e-05
2.15912955683e-05
2.06930413884e-05
1.98240478729e-05
1.8982273098e-05
1.81658302602e-05
1.73729700465e-05
1.66020658879e-05
1.58516014761e-05
1.5120160069e-05
1.44064152034e-05
1.37091225235e-05
1.30271124826e-05
1.23592837346e-05
1.17045970516e-05
1.1062069642e-05
1.04307697489e-05
9.80981142875e-06
9.19834940121e-06
8.59557386618e-06
8.00070515213e-06
7.41298803194e-06
6.83168545758e-06
6.25607134474e-06
5.68542179355e-06
5.11900372737e-06
4.55605918944e-06
3.99578227837e-06
3.4372835659e-06
2.87953354337e-06
2.32127227593e-06
1.76086891346e-06
1.19611766133e-06
6.23975635124e-07
1.16256525091e-07
0.000174150748955
0.000176477523077
0.000177706941307
0.000177792796751
0.00017711386813
0.000176004925695
0.000174700054422
0.000173339069049
0.000171995055451
0.000170700539057
0.00016946588886
0.000168290519033
0.000167169112859
0.000166094831812
0.000165060834979
0.000164060904847
0.000163089627126
0.000162142365127
0.000161215152622
0.000160304565879
0.000159407602254
0.000158521575789
0.000157644032037
0.000156772680682
0.000155905343136
0.000155039912113
0.000154174320383
0.000153306516335
0.000152434446299
0.000151556037263
0.000150669180172
0.000149771718545
0.000148861436229
0.000147936044771
0.000146993169999
0.00014603033725
0.00014504495465
0.000144034293679
0.000142995466116
0.000141925396145
0.000140820786046
0.000139678073385
0.000138493376965
0.00013726242804
0.000135980482434
0.000134642208472
0.000133241545334
0.00013177152733
0.000130224072808
0.000128589743938
0.000126857497769
0.00012501447256
0.000123045886888
0.000120935168194
0.000118664457701
0.000116215636006
0.000113571955751
0.00011072025544
0.000107653591682
0.000104373999566
0.000100894955762
9.72428717712e-05
9.34566174195e-05
8.95841884736e-05
8.56768161842e-05
8.17825073774e-05
7.79415378245e-05
7.41851740441e-05
7.05368978015e-05
6.70146954308e-05
6.36332000478e-05
6.04049096965e-05
5.73403311514e-05
5.44473359206e-05
5.17302236018e-05
4.91889838953e-05
4.68191088539e-05
4.46120792097e-05
4.2556397796e-05
4.06388752172e-05
3.88458532197e-05
3.71641521954e-05
3.55816684312e-05
3.40876546589e-05
3.2672769214e-05
3.13289849921e-05
3.00494311193e-05
2.88282158414e-05
2.76602579948e-05
2.6541139632e-05
2.54669833844e-05
2.44343534599e-05
2.34401771252e-05
2.24816830103e-05
2.15563527605e-05
2.06618830759e-05
1.97961557237e-05
1.89572136427e-05
1.81432416814e-05
1.73525508704e-05
1.65835653914e-05
1.5834811616e-05
1.51049087347e-05
1.43925606181e-05
1.36965486299e-05
1.30157251784e-05
1.23490078362e-05
1.1695373892e-05
1.105385522e-05
1.0423533366e-05
9.80353475615e-06
9.19302593133e-06
8.59120869384e-06
7.99731502586e-06
7.41060158151e-06
6.83034346051e-06
6.25582680837e-06
5.68633951569e-06
5.12115883174e-06
4.55953395172e-06
4.00066041686e-06
3.44364128886e-06
2.88742744246e-06
2.33072638751e-06
1.77186754773e-06
1.20861571922e-06
6.37937755009e-07
1.26848579374e-07
0.000171092126771
0.000173275764757
0.000174586175316
0.000174927661719
0.000174572673981
0.000173784868921
0.000172765475445
0.00017164630739
0.000170504152312
0.000169378894428
0.000168288179623
0.000167237339006
0.000166225455835
0.000165248819916
0.000164302773327
0.000163382624351
0.000162484047156
0.000161603211474
0.000160736779715
0.000159881846214
0.000159035857548
0.00015819653296
0.000157361793237
0.000156529700733
0.000155698410497
0.000154866131218
0.000154031094333
0.000153191529991
0.000152345648752
0.000151491625021
0.000150627580381
0.000149751573246
0.000148861587497
0.000147955521235
0.000147031175023
0.000146086239063
0.000145118278695
0.000144124717469
0.000143102816865
0.000142049651405
0.000140962077485
0.000139836693618
0.000138669788972
0.000137457276026
0.000136194601873
0.000134876631334
0.000133497493876
0.000132050386099
0.000130527323619
0.00012891884283
0.000127213667739
0.000125398384038
0.000123457204957
0.000121371968231
0.000119122553974
0.000116687924774
0.00011404792516
0.000111185835633
0.000108091504454
0.000104764741045
0.000101218540639
9.74813860152e-05
9.35972140662e-05
8.96214597868e-05
8.56132664585e-05
8.16268051042e-05
7.77055696413e-05
7.38813546098e-05
7.01765809025e-05
6.66077744907e-05
6.31885269168e-05
5.99310232851e-05
5.6846052282e-05
5.39419684512e-05
5.12233083951e-05
4.86897123938e-05
4.63356081425e-05
4.41508092187e-05
4.21218326518e-05
4.02335125296e-05
3.84704807781e-05
3.68182493432e-05
3.52638282151e-05
3.37959528616e-05
3.24050486071e-05
3.1083052887e-05
2.98231835988e-05
2.86197067733e-05
2.74677298912e-05
2.63630300511e-05
2.53019168937e-05
2.42811259885e-05
2.32977371157e-05
2.23491120435e-05
2.14328471752e-05
2.05467373393e-05
1.96887478579e-05
1.88569927246e-05
1.80497172955e-05
1.72652843124e-05
1.65021624036e-05
1.57589164325e-05