/*--------------------------------*- C++ -*----------------------------------*\
  =========                 |
  \\      /  F ield         | OpenFOAM: The Open Source CFD Toolbox
   \\    /   O peration     | Website:  https://openfoam.org
    \\  /    A nd           | Version:  7
     \\/     M anipulation  |
\*---------------------------------------------------------------------------*/
FoamFile
{
    version     2.0;
    format      ascii;
    class       volVectorField;
    location    "3540";
    object      U;
}
// * * * * * * * * * * * * * * * * * * * * * * * * * * * * * * * * * * * * * //

dimensions      [0 1 -1 0 0 0 0];

internalField   nonuniform List<vector> 
8192
(
(0.0010434911459 0.000156508854104 0)
(0.000759413396621 0.000127568893703 0)
(0.000549456373437 8.23881265213e-05 0)
(0.000414196974034 5.28712699015e-05 0)
(0.000326327405441 3.49982956311e-05 0)
(0.000267203052507 2.41260541101e-05 0)
(0.000225766919009 1.73100761208e-05 0)
(0.000195589059948 1.28677796524e-05 0)
(0.00017286763347 9.85364355366e-06 0)
(0.000155284542478 7.72944420585e-06 0)
(0.00014137434684 6.18074825298e-06 0)
(0.00013017570203 5.01789344197e-06 0)
(0.000121035300748 4.12250479693e-06 0)
(0.00011349464532 3.41814766431e-06 0)
(0.000107222650578 2.8538441932e-06 0)
(0.000101974244765 2.39455882474e-06 0)
(9.75641381055e-05 2.0155451353e-06 0)
(9.38497025705e-05 1.69888780451e-06 0)
(9.07194855891e-05 1.43132669462e-06 0)
(8.80853060878e-05 1.20285044742e-06 0)
(8.58766890873e-05 1.00576432703e-06 0)
(8.40368648446e-05 8.34057834298e-07 0)
(8.2519838752e-05 6.82966333112e-07 0)
(8.12882095916e-05 5.48661070648e-07 0)
(8.03115210459e-05 4.28025899375e-07 0)
(7.95650000622e-05 3.18493702992e-07 0)
(7.90285805394e-05 2.17924645796e-07 0)
(7.86861406842e-05 1.24514257096e-07 0)
(7.85249025875e-05 3.67231224233e-08 0)
(7.85349564615e-05 -4.67774634005e-08 0)
(7.87088813732e-05 -1.27147650838e-07 0)
(7.90414409341e-05 -2.05411832646e-07 0)
(7.95293377549e-05 -2.82484615849e-07 0)
(8.01710138025e-05 -3.59190748478e-07 0)
(8.09664853435e-05 -4.36279782718e-07 0)
(8.19172024617e-05 -5.14435982292e-07 0)
(8.30259238177e-05 -5.94283661125e-07 0)
(8.42965973164e-05 -6.76387748671e-07 0)
(8.5734236708e-05 -7.61249161799e-07 0)
(8.73447829785e-05 -8.49294219045e-07 0)
(8.91349376769e-05 -9.40857166874e-07 0)
(9.11119532031e-05 -1.03615461052e-06 0)
(9.32833626357e-05 -1.13525062684e-06 0)
(9.56566292351e-05 -1.23801132343e-06 0)
(9.82386937237e-05 -1.34404806028e-06 0)
(0.000101035396596 -1.45264925429e-06 0)
(0.000104050754048 -1.56270219754e-06 0)
(0.000107286071094 -1.67260842421e-06 0)
(0.000110738885712 -1.78019937501e-06 0)
(0.000114401755236 -1.8826629713e-06 0)
(0.000118260922011 -1.97649631645e-06 0)
(0.000122294929949 -2.05750388204e-06 0)
(0.000126473305161 -2.12086341066e-06 0)
(0.000130755457804 -2.16128121277e-06 0)
(0.000135090000299 -2.17325325862e-06 0)
(0.000139414698084 -2.15143660351e-06 0)
(0.000143657259928 -2.09111754386e-06 0)
(0.000147737124222 -1.98873941837e-06 0)
(0.000151568298753 -1.84242830485e-06 0)
(0.000155063167385 -1.65243421994e-06 0)
(0.000158137004009 -1.42139719097e-06 0)
(0.00016071276481 -1.15435949697e-06 0)
(0.000162725610797 -8.58483686082e-07 0)
(0.000164126592709 -5.42496923698e-07 0)
(0.000164885039753 -2.15950484794e-07 0)
(0.000164989420086 1.1156800874e-07 0)
(0.000164446724396 4.31123713698e-07 0)
(0.000163280678538 7.34916380403e-07 0)
(0.000161529227387 1.01652730985e-06 0)
(0.000159241726807 1.27096427561e-06 0)
(0.000156476175853 1.49457635492e-06 0)
(0.00015329666713 1.68492094485e-06 0)
(0.000149771090887 1.84064301371e-06 0)
(0.000145969043385 1.96139157696e-06 0)
(0.000141959872908 2.04776558156e-06 0)
(0.000137810831558 2.10126224052e-06 0)
(0.000133585357903 2.12419785367e-06 0)
(0.000129341564612 2.11958199097e-06 0)
(0.000125131026407 2.09094300326e-06 0)
(0.000120997951126 2.04211939749e-06 0)
(0.000116978777773 1.97704147779e-06 0)
(0.000113102194779 1.89952948786e-06 0)
(0.000109389524816 1.81312893054e-06 0)
(0.000105855390158 1.72099467947e-06 0)
(0.00010250855916 1.62582577223e-06 0)
(9.93528778835e-05 1.52984545434e-06 0)
(9.63882063065e-05 1.43481655836e-06 0)
(9.36112995753e-05 1.34208107787e-06 0)
(9.10165964039e-05 1.25261344993e-06 0)
(8.85968955601e-05 1.16707918195e-06 0)
(8.63439158849e-05 1.08589269401e-06 0)
(8.4248745186e-05 1.00927059946e-06 0)
(8.2302189237e-05 9.37278320586e-07 0)
(8.04950348719e-05 8.69869375852e-07 0)
(7.88182417623e-05 8.06917410694e-07 0)
(7.72630766933e-05 7.48241667417e-07 0)
(7.58212026493e-05 6.93626705457e-07 0)
(7.44847332111e-05 6.42837369642e-07 0)
(7.32462609294e-05 5.95629845966e-07 0)
(7.20988666335e-05 5.51759670064e-07 0)
(7.10361151372e-05 5.10987321899e-07 0)
(7.00520415354e-05 4.7308204014e-07 0)
(6.91411312417e-05 4.37824267801e-07 0)
(6.82982960681e-05 4.05007162706e-07 0)
(6.75188479763e-05 3.7443741756e-07 0)
(6.67984715795e-05 3.45935687751e-07 0)
(6.61331960392e-05 3.19336770009e-07 0)
(6.55193666265e-05 2.94489757532e-07 0)
(6.49536158978e-05 2.71258272664e-07 0)
(6.4432834114e-05 2.495209885e-07 0)
(6.39541382101e-05 2.29172558387e-07 0)
(6.35148382331e-05 2.10125217717e-07 0)
(6.31123996848e-05 1.92311277067e-07 0)
(6.27443995594e-05 1.75686934287e-07 0)
(6.24084729606e-05 1.60237883105e-07 0)
(6.21022458714e-05 1.45987551412e-07 0)
(6.18232476938e-05 1.33009093775e-07 0)
(6.15687941622e-05 1.21443024981e-07 0)
(6.13358264626e-05 1.11523380789e-07 0)
(6.11206846066e-05 1.03617302614e-07 0)
(6.09187801218e-05 9.82861368965e-08 0)
(6.07241112432e-05 9.63818344094e-08 0)
(6.05285277335e-05 9.92009208594e-08 0)
(6.03205991803e-05 1.08727047328e-07 0)
(6.00838925908e-05 1.27979137965e-07 0)
(5.97946189602e-05 1.61294270218e-07 0)
(5.94199028797e-05 2.13421789641e-07 0)
(5.89326917714e-05 2.7378946084e-07 0)
(0.00121020299764 0.000302814709221 0)
(0.00116040261262 0.000315141167085 0)
(0.00102705582465 0.000238119655333 0)
(0.000887596427265 0.000171858528746 0)
(0.000766835493413 0.000124641529784 0)
(0.000668252263853 9.21903926857e-05 0)
(0.000589153795236 6.97803297456e-05 0)
(0.000525726738423 5.40024319711e-05 0)
(0.000474545566197 4.26215800775e-05 0)
(0.000432884221688 3.42059334475e-05 0)
(0.000398663596663 2.78350700996e-05 0)
(0.000370317564369 2.2908239314e-05 0)
(0.000346664929178 1.90251862212e-05 0)
(0.000326807910439 1.59131314558e-05 0)
(0.000310056893343 1.33818635331e-05 0)
(0.000295876060333 1.12957698654e-05 0)
(0.000283844376334 9.55611659832e-06 0)
(0.000273627516429 8.08960393908e-06 0)
(0.000264957510557 6.84082590919e-06 0)
(0.000257617830895 5.76720326111e-06 0)
(0.000251432340258 4.83551241431e-06 0)
(0.000246257004276 4.01946366758e-06 0)
(0.000241973603215 3.29798181302e-06 0)
(0.000238484907444 2.65396518313e-06 0)
(0.000235710936956 2.0733760157e-06 0)
(0.000233586033362 1.54456393289e-06 0)
(0.000232056547714 1.05775596471e-06 0)
(0.000231079000155 6.04667379085e-07 0)
(0.00023061860447 1.78201495187e-07 0)
(0.000230648077037 -2.27783837573e-07 0)
(0.000231146668194 -6.18658137829e-07 0)
(0.000232099367528 -9.99160225348e-07 0)
(0.000233496245098 -1.37350975043e-06 0)
(0.000235331897087 -1.74549189407e-06 0)
(0.000237604968052 -2.11851845336e-06 0)
(0.000240317724651 -2.49566736103e-06 0)
(0.000243475656888 -2.87970118805e-06 0)
(0.000247087082803 -3.27306388417e-06 0)
(0.00025116273115 -3.67785391059e-06 0)
(0.000255715274299 -4.0957708909e-06 0)
(0.000260758780372 -4.52803208989e-06 0)
(0.000266308049984 -4.97525444028e-06 0)
(0.000272377799158 -5.43729778996e-06 0)
(0.000278981646996 -5.91306574366e-06 0)
(0.000286130865447 -6.40026248829e-06 0)
(0.000293832850819 -6.89510776086e-06 0)
(0.000302089284576 -7.3920184101e-06 0)
(0.000310893967185 -7.88327425678e-06 0)
(0.000320230336265 -8.35869859505e-06 0)
(0.000330068721716 -8.80539915242e-06 0)
(0.000340363447418 -9.20763224832e-06 0)
(0.00035104996046 -9.54686793805e-06 0)
(0.000362042249602 -9.80214228611e-06 0)
(0.00037323089424 -9.95077799122e-06 0)
(0.000384482146799 -9.96952997309e-06 0)
(0.000395638473741 -9.83616343157e-06 0)
(0.000406520940034 -9.53139841091e-06 0)
(0.000416933699988 -9.04106352147e-06 0)
(0.000426670645897 -8.3582070118e-06 0)
(0.000435523975517 -7.48483832358e-06 0)
(0.000443294105554 -6.43294708044e-06 0)
(0.000449800043979 -5.22449954686e-06 0)
(0.000454889123804 -3.89026413592e-06 0)
(0.000458444980247 -2.46755401253e-06 0)
(0.00046039287093 -9.97235206415e-07 0)
(0.000460701869209 4.7946491043e-07 0)
(0.000459383993802 1.92378355582e-06 0)
(0.00045649081734 3.30145955853e-06 0)
(0.000452108370934 4.58385783147e-06 0)
(0.000446351184555 5.74829284089e-06 0)
(0.000439356135348 6.7778167009e-06 0)
(0.00043127651122 7.66077950232e-06 0)
(0.00042227644377 8.39039218505e-06 0)
(0.000412525703147 8.96439319871e-06 0)
(0.000402194800963 9.38479851511e-06 0)
(0.000391450392279 9.65764098827e-06 0)
(0.00038045105434 9.79259255063e-06 0)
(0.000369343596213 9.80240113851e-06 0)
(0.000358260083488 9.70213808284e-06 0)
(0.000347315734166 9.50831330925e-06 0)
(0.000336607766895 9.23795383006e-06 0)
(0.000326215186012 8.90774800166e-06 0)
(0.000316199396846 8.53333794272e-06 0)
(0.000306605479395 8.1288075948e-06 0)
(0.000297463917652 7.70637682828e-06 0)
(0.000288792583432 7.27628250709e-06 0)
(0.000280598799048 6.84680941595e-06 0)
(0.000272881341775 6.42442745749e-06 0)
(0.000265632295053 6.01399342538e-06 0)
(0.000258838690058 5.61898267664e-06 0)
(0.000252483912873 5.24172480687e-06 0)
(0.00024654887575 4.88362612023e-06 0)
(0.000241012966446 4.54536888099e-06 0)
(0.000235854798549 4.22708288088e-06 0)
(0.000231052789732 3.92848857129e-06 0)
(0.000226585595537 3.64901341088e-06 0)
(0.00022243242476 3.38788429041e-06 0)
(0.000218573259858 3.14419947048e-06 0)
(0.000214989002581 2.91698345766e-06 0)
(0.000211661561805 2.70522806442e-06 0)
(0.000208573897434 2.50792248039e-06 0)
(0.000205710031502 2.3240748208e-06 0)
(0.000203055035214 2.15272716806e-06 0)
(0.0002005949986 1.99296580948e-06 0)
(0.000198316987832 1.84392802065e-06 0)
(0.00019620899376 1.7048065429e-06 0)
(0.000194259874104 1.57485267016e-06 0)
(0.000192459290696 1.45337877406e-06 0)
(0.000190797642306 1.33976097864e-06 0)
(0.000189265992736 1.2334427198e-06 0)
(0.000187855993078 1.13393992532e-06 0)
(0.000186559796168 1.04084870168e-06 0)
(0.000185369960311 9.53856567262e-07 0)
(0.000184279338224 8.72758611473e-07 0)
(0.000183280945785 7.97480367724e-07 0)
(0.000182367803543 7.28109879618e-07 0)
(0.000181532741966 6.64942351444e-07 0)
(0.000180768159256 6.08542188025e-07 0)
(0.000180065718545 5.59829163045e-07 0)
(0.000179415970632 5.20198194011e-07 0)
(0.000178807892275 4.91685390602e-07 0)
(0.000178228346385 4.77195088564e-07 0)
(0.000177661519949 4.80795838091e-07 0)
(0.000177088529811 5.08049582156e-07 0)
(0.000176487741885 5.66150451262e-07 0)
(0.000175837239998 6.62898334094e-07 0)
(0.000175123550354 8.00223709835e-07 0)
(0.000174359487109 9.38262339854e-07 0)
(0.00122478632069 0.000267825388055 0)
(0.00124105768215 0.000383659502691 0)
(0.00119602243324 0.000347983344005 0)
(0.00111299519046 0.000284481467483 0)
(0.00101959369538 0.000226181006886 0)
(0.000929526613033 0.000179301214091 0)
(0.00084823630071 0.000143058275744 0)
(0.000777129469972 0.000115258359998 0)
(0.000715848873689 9.38274071319e-05 0)
(0.000663378163817 7.71321475036e-05 0)
(0.000618545674832 6.39619569796e-05 0)
(0.000580235818609 5.3437228105e-05 0)
(0.00054746424257 4.49203960656e-05 0)
(0.000519392673085 3.79464975155e-05 0)
(0.000495319274335 3.21729012985e-05 0)
(0.000474660864672 2.73439630781e-05 0)
(0.000456934062513 2.32663982064e-05 0)
(0.000441738127513 1.97921062862e-05 0)
(0.000428740329855 1.68061165651e-05 0)
(0.00041766386356 1.42180484944e-05 0)
(0.000408278015502 1.19559963066e-05 0)
(0.00040039022403 9.96209819969e-06 0)
(0.000393839676468 8.18928745115e-06 0)
(0.000388492142386 6.59888156802e-06 0)
(0.000384235793113 5.15877222583e-06 0)
(0.000380977807078 3.84205089638e-06 0)
(0.000378641601857 2.62595416892e-06 0)
(0.000377164567064 1.49104662531e-06 0)
(0.000376496198336 4.20582606929e-07 0)
(0.000376596552821 -5.99995162575e-07 0)
(0.000377434961357 -1.58344872597e-06 0)
(0.000378988944438 -2.54105328109e-06 0)
(0.000381243288486 -3.48283850521e-06 0)
(0.000384189244165 -4.41776990772e-06 0)
(0.00038782381164 -5.35387684207e-06 0)
(0.000392149080167 -6.29833086719e-06 0)
(0.000397171589911 -7.25747519097e-06 0)
(0.000402901683203 -8.23680331998e-06 0)
(0.00040935281038 -9.24088288838e-06 0)
(0.000416540752486 -1.02732186652e-05 0)
(0.000424482719395 -1.13360473615e-05 0)
(0.000433196278085 -1.24300560652e-05 0)
(0.000442698062336 -1.35540166919e-05 0)
(0.000453002213189 -1.4704331127e-05 0)
(0.000464118500531 -1.58744869897e-05 0)
(0.00047605008225 -1.70544329636e-05 0)
(0.000488790871071 -1.82298969666e-05 0)
(0.000502322503653 -1.93816907147e-05 0)
(0.000516610945023 -2.04850711541e-05 0)
(0.000531602816778 -2.15092612379e-05 0)
(0.000547221610922 -2.24172664851e-05 0)
(0.00056336404089 -2.31661524194e-05 0)
(0.000579896880165 -2.37079613959e-05 0)
(0.000596654733612 -2.39914318813e-05 0)
(0.000613439256283 -2.3964626298e-05 0)
(0.00063002035266 -2.35784658668e-05 0)
(0.000646139828053 -2.2791014018e-05 0)
(0.000661517800858 -2.15721584837e-05 0)
(0.000675861911035 -1.99081480212e-05 0)
(0.000688878990759 -1.78052893215e-05 0)
(0.000700288441416 -1.52920629762e-05 0)
(0.00070983616383 -1.24190350076e-05 0)
(0.000717307620599 -9.25626085402e-06 0)
(0.000722538579507 -5.88837394246e-06 0)
(0.000725422361955 -2.40809588521e-06 0)
(0.000725912972088 1.09070329204e-06 0)
(0.0007240241703 4.51920212499e-06 0)
(0.000719825173766 7.79818771028e-06 0)
(0.000713434024652 1.08606934602e-05 0)
(0.000705009702051 1.36529297267e-05 0)
(0.000694743843861 1.61340468612e-05 0)
(0.000682852614863 1.82753591044e-05 0)
(0.000669568944908 2.00595044682e-05 0)
(0.00065513516426 2.14797553099e-05 0)
(0.000639796008051 2.25394472888e-05 0)
(0.000623792017243 2.32513441967e-05 0)
(0.000607353467581 2.36367299624e-05 0)
(0.000590695046504 2.37240969093e-05 0)
(0.00057401152722 2.35474295899e-05 0)
(0.00055747464556 2.31442095819e-05 0)
(0.000541231284059 2.25533448177e-05 0)
(0.00052540294104 2.1813241185e-05 0)
(0.000510086344594 2.09601924591e-05 0)
(0.000495354987042 2.00271919794e-05 0)
(0.000481261315012 1.90431918888e-05 0)
(0.00046783931079 1.80327732738e-05 0)
(0.000455107231393 1.70161514575e-05 0)
(0.000443070319333 1.60094253356e-05 0)
(0.00043172335172 1.50249819498e-05 0)
(0.000421052943464 1.40719808705e-05 0)
(0.000411039561463 1.31568605936e-05 0)
(0.000401659237851 1.2283827124e-05 0)
(0.000392884992078 1.14553002088e-05 0)
(0.00038468798513 1.06723047998e-05 0)
(0.000377038436362 9.93480374052e-06 0)
(0.000369906336004 9.2419733552e-06 0)
(0.000363261985959 8.59242674827e-06 0)
(0.000357076399122 7.98439131752e-06 0)
(0.000351321584182 7.41584734487e-06 0)
(0.000345970739141 6.88463442913e-06 0)
(0.000340998373115 6.38853183315e-06 0)
(0.000336380372507 5.92531817723e-06 0)
(0.00033209402457 5.4928150241e-06 0)
(0.000328118008633 5.08891827106e-06 0)
(0.000324432362955 4.71162051584e-06 0)
(0.000321018433166 4.35902712656e-06 0)
(0.000317858806578 4.02936822107e-06 0)
(0.000314937235185 3.72100855043e-06 0)
(0.000312238548921 3.4324569818e-06 0)
(0.000309748559618 3.16237728333e-06 0)
(0.000307453955034 2.90960183309e-06 0)
(0.000305342181376 2.67315010059e-06 0)
(0.00030340131172 2.45225390212e-06 0)
(0.000301619896865 2.24639190147e-06 0)
(0.000299986794269 2.0553362396e-06 0)
(0.000298490970184 1.87921489538e-06 0)
(0.000297121270119 1.71859396727e-06 0)
(0.000295866154114 1.57458470774e-06 0)
(0.000294713397371 1.4489799655e-06 0)
(0.000293649766239 1.34442277977e-06 0)
(0.000292660699654 1.26460261058e-06 0)
(0.000291730066727 1.21445412399e-06 0)
(0.000290840150679 1.20027736802e-06 0)
(0.000289972160368 1.22954728241e-06 0)
(0.000289107838684 1.30976191717e-06 0)
(0.000288233165711 1.44446198881e-06 0)
(0.000287344962518 1.62055357945e-06 0)
(0.000286455848297 1.77111065199e-06 0)
(0.00122189953852 0.000221139525799 0)
(0.00125323054843 0.000382742983661 0)
(0.00125061495856 0.000396550688152 0)
(0.00121247679156 0.000357079519464 0)
(0.00115384238715 0.000305618840451 0)
(0.00108712550272 0.000256647333085 0)
(0.00101981244555 0.000214315511888 0)
(0.000955876724192 0.000179043661593 0)
(0.000897154889042 0.00015004452268 0)
(0.000844276166544 0.000126264450154 0)
(0.00079722687519 0.000106711420649 0)
(0.000755676472207 9.05480098003e-05 0)
(0.000719159439143 7.70982098303e-05 0)
(0.000687173216406 6.5826462551e-05 0)
(0.000659228424021 5.63111142173e-05 0)
(0.000634872525591 4.8220045339e-05 0)
(0.000613699059359 4.12905717174e-05 0)
(0.000595349286714 3.53136281231e-05 0)
(0.000579510076206 3.01215909492e-05 0)
(0.000565910115664 2.55789893849e-05 0)
(0.00055431557154 2.15754364534e-05 0)
(0.000544525770512 1.80202398603e-05 0)
(0.000536369177855 1.48382758007e-05 0)
(0.000529699784094 1.19668113721e-05 0)
(0.000524393925532 9.35304112478e-06 0)
(0.000520347521136 6.95216388923e-06 0)
(0.000517473688564 4.72587105828e-06 0)
(0.000515700694831 2.6411510166e-06 0)
(0.000514970196168 6.6933906537e-07 0)
(0.000515235723635 -1.21463937187e-06 0)
(0.000516461373073 -3.03286751199e-06 0)
(0.000518620662334 -4.80491103581e-06 0)
(0.000521695522207 -6.5481880132e-06 0)
(0.000525675387447 -8.27824375766e-06 0)
(0.000530556355174 -1.00089396898e-05 0)
(0.000536340378373 -1.17525602509e-05 0)
(0.000543034461139 -1.35198377888e-05 0)
(0.000550649820312 -1.53198915748e-05 0)
(0.000559200975335 -1.71600740913e-05 0)
(0.000568704724665 -1.90457149752e-05 0)
(0.000579178963203 -2.09797513499e-05 0)
(0.000590641291492 -2.29622326354e-05 0)
(0.000603107364516 -2.49896896686e-05 0)
(0.000616588927134 -2.70543625527e-05 0)
(0.000631091485837 -2.91432911829e-05 0)
(0.000646611575022 -3.12372878855e-05 0)
(0.000663133592876 -3.33098355805e-05 0)
(0.000680626210644 -3.53259879959e-05 0)
(0.000699038402901 -3.72413917857e-05 0)
(0.000718295208507 -3.90016010727e-05 0)
(0.000738293413654 -4.05419079764e-05 0)
(0.000758897447929 -4.17879562743e-05 0)
(0.000779935894506 -4.26574237364e-05 0)
(0.000801199121753 -4.30630300316e-05 0)
(0.000822438622864 -4.29170314479e-05 0)
(0.000843368672558 -4.21371863536e-05 0)
(0.000863670843163 -4.0653919545e-05 0)
(0.000883001739808 -3.84181033653e-05 0)
(0.000901004004463 -3.54085604557e-05 0)
(0.000917320214123 -3.16381509553e-05 0)
(0.000931608805393 -2.71572308998e-05 0)
(0.000943560680626 -2.20534560907e-05 0)
(0.000952914812405 -1.64474241702e-05 0)
(0.000959471102163 -1.04844603031e-05 0)
(0.00096309906234 -4.3237588176e-06 0)
(0.000963741559023 1.87324682425e-06 0)
(0.000961413699543 7.95330138588e-06 0)
(0.000956197709167 1.37790512996e-05 0)
(0.000948235068229 1.92335908288e-05 0)
(0.000937717201848 2.42221879306e-05 0)
(0.000924875733395 2.86720783881e-05 0)
(0.00090997289959 3.25313508039e-05 0)
(0.000893292352415 3.57676884694e-05 0)
(0.000875130353454 3.83673083894e-05 0)
(0.000855787321979 4.0334038945e-05 0)
(0.000835559783382 4.16882391627e-05 0)
(0.000814732900013 4.24652259009e-05 0)
(0.000793573874503 4.27130064805e-05 0)
(0.000772326545315 4.24893287578e-05 0)
(0.000751207433217 4.18582659925e-05 0)
(0.000730403367528 4.08866791001e-05 0)
(0.000710070663964 3.9640918733e-05 0)
(0.000690335683734 3.81840585929e-05 0)
(0.000671296504895 3.65738309667e-05 0)
(0.00065302539211 3.48613081164e-05 0)
(0.000635571754214 3.30902711514e-05 0)
(0.000618965316588 3.12971440914e-05 0)
(0.000603219290944 2.95113452984e-05 0)
(0.000588333385486 2.77559112632e-05 0)
(0.000574296554225 2.60482685054e-05 0)
(0.000561089430667 2.44010570956e-05 0)
(0.000548686426572 2.28229379822e-05 0)
(0.000537057501429 2.13193409328e-05 0)
(0.000526169624327 1.98931297532e-05 0)
(0.000515987958952 1.85451754745e-05 0)
(0.000506476806385 1.72748379687e-05 0)
(0.000497600340782 1.60803620501e-05 0)
(0.00048932317129 1.49591974283e-05 0)
(0.000481610760466 1.39082528705e-05 0)
(0.00047442972587 1.29240951736e-05 0)
(0.000467748047704 1.20031026503e-05 0)
(0.000461535201716 1.11415820339e-05 0)
(0.000455762233232 1.03358563481e-05 0)
(0.000450401785144 9.58233038486e-06 0)
(0.000445428090054 8.87753920722e-06 0)
(0.000440816934479 8.21818443088e-06 0)
(0.000436545601056 7.60116212422e-06 0)
(0.000432592793006 7.02358582356e-06 0)
(0.000428938543645 6.48280757331e-06 0)
(0.000425564112495 5.97643986641e-06 0)
(0.000422451868436 5.5023810674e-06 0)
(0.000419585159436 5.05884713251e-06 0)
(0.000416948167598 4.64441238424e-06 0)
(0.000414525747787 4.25806250131e-06 0)
(0.000412303247935 3.89926288796e-06 0)
(0.000410266309628 3.56804581546e-06 0)
(0.000408400649197 3.26511909553e-06 0)
(0.000406691823019 2.99199769612e-06 0)
(0.000405124987482 2.75115559087e-06 0)
(0.000403684676174 2.54618636183e-06 0)
(0.000402354637775 2.38194126222e-06 0)
(0.000401117812852 2.26457111831e-06 0)
(0.000399956582436 2.20130525416e-06 0)
(0.000398853498594 2.19959264393e-06 0)
(0.000397792786034 2.26475062986e-06 0)
(0.000396762811878 2.39412088767e-06 0)
(0.000395758659539 2.56325108059e-06 0)
(0.000394778987902 2.69719985875e-06 0)
(0.00121687212811 0.000182367855733 0)
(0.001248794616 0.000358261144954 0)
(0.00126493282631 0.000407509891482 0)
(0.00125448486548 0.000394706429127 0)
(0.0012232396051 0.000357871580485 0)
(0.0011795215519 0.0003148295153 0)
(0.00112989461097 0.000273073312257 0)
(0.00107874671261 0.000235369465397 0)
(0.00102877589924 0.000202411351887 0)
(0.000981521253147 0.000174030974123 0)
(0.000937771203095 0.000149744222778 0)
(0.000897846034434 0.000128990764139 0)
(0.000861784442886 0.000111234065076 0)
(0.000829463467584 9.59977904857e-05 0)
(0.000800674085095 8.28739464867e-05 0)
(0.000775167964728 7.15192174073e-05 0)
(0.000752685742369 6.16470740142e-05 0)
(0.000732973584965 5.30190419091e-05 0)
(0.000715792416144 4.54365428099e-05 0)
(0.000700922598986 3.87338018525e-05 0)
(0.000688165852801 3.27719012619e-05 0)
(0.000677345526221 2.74338899936e-05 0)
(0.00066830593068 2.26208015929e-05 0)
(0.000660911171995 1.82484261746e-05 0)
(0.000655043748569 1.42446969108e-05 0)
(0.000650603077476 1.05475726706e-05 0)
(0.000647504041868 7.10332004324e-06 0)
(0.00064567561027 3.86511748393e-06 0)
(0.000645059551326 7.91920890014e-07 0)
(0.000645609250456 -2.15245651543e-06 0)
(0.000647288622637 -5.00008008701e-06 0)
(0.000650071111111 -7.77948364227e-06 0)
(0.000653938757203 -1.05161281346e-05 0)
(0.000658881319581 -1.32327373003e-05 0)
(0.000664895419506 -1.59495190914e-05 0)
(0.000671983685992 -1.86842750341e-05 0)
(0.00068015387147 -2.14523949163e-05 0)
(0.000689417904981 -2.42667299196e-05 0)
(0.000699790845993 -2.71373336425e-05 0)
(0.000711289697781 -3.00710574219e-05 0)
(0.000723932035079 -3.3070984586e-05 0)
(0.000737734396906 -3.61356882696e-05 0)
(0.000752710392744 -3.92583005033e-05 0)
(0.000768868469715 -4.24253877125e-05 0)
(0.000786209291574 -4.56156417402e-05 0)
(0.00080472268929 -4.87984180952e-05 0)
(0.000824384160538 -5.19321870177e-05 0)
(0.000845150924792 -5.49630097904e-05 0)
(0.000866957585837 -5.7823213168e-05 0)
(0.000889711517776 -6.04305057973e-05 0)
(0.000913288176486 -6.26878544014e-05 0)
(0.000937526645113 -6.44844988462e-05 0)
(0.000962225843342 -6.56985109703e-05 0)
(0.000987141951343 -6.62012620971e-05 0)
(0.00101198769594 -6.58640283954e-05 0)
(0.00103643418494 -6.4566710927e-05 0)
(0.00106011591757 -6.2208280928e-05 0)
(0.00108263941128 -5.87181153887e-05 0)
(0.00110359554932 -5.40669351109e-05 0)
(0.00112257527924 -4.82757014533e-05 0)
(0.00113918772098 -4.1420701373e-05 0)
(0.00115307916702 -3.36332980687e-05 0)
(0.00116395101651 -2.50935586775e-05 0)
(0.00117157456443 -1.60181634808e-05 0)
(0.00117580091253 -6.64436926886e-06 0)
(0.0011765650804 2.78718170406e-06 0)
(0.00117388445361 1.20478360877e-05 0)
(0.00116785264703 2.09322914948e-05 0)
(0.00115863036255 2.92652491893e-05 0)
(0.00114643479386 3.69039337165e-05 0)
(0.00113152872893 4.37378318153e-05 0)
(0.0011142099614 4.96871621188e-05 0)
(0.00109480116825 5.47011792861e-05 0)
(0.00107364017076 5.87567749431e-05 0)
(0.00105107048118 6.18572541299e-05 0)
(0.00102743217664 6.40308281335e-05 0)
(0.00100305333123 6.5328327513e-05 0)
(0.000978242378737 6.581984584e-05 0)
(0.000953281812747 6.55903489718e-05 0)
(0.000928423548709 6.47345879207e-05 0)
(0.000903886106133 6.33518331564e-05 0)
(0.000879853574862 6.15409689819e-05 0)
(0.000856476159626 5.93963750193e-05 0)
(0.00083387198527 5.70048406258e-05 0)
(0.000812129799635 5.44435713715e-05 0)
(0.000791312221967 5.17791994567e-05 0)
(0.00077145923288 4.906761989e-05 0)
(0.000752591667657 4.63544390428e-05 0)
(0.000734714542927 4.36758275591e-05 0)
(0.000717820108008 4.10595993232e-05 0)
(0.000701890561945 3.85263778239e-05 0)
(0.000686900414704 3.60907514289e-05 0)
(0.000672818496999 3.3762354023e-05 0)
(0.000659609639967 3.15468352831e-05 0)
(0.000647236055432 2.94467050915e-05 0)
(0.000635658451845 2.7462050461e-05 0)
(0.00062483692177 2.55911318781e-05 0)
(0.000614731635343 2.38308708247e-05 0)
(0.000605303371311 2.21772422762e-05 0)
(0.000596513913818 2.06255864252e-05 0)
(0.000588326339408 1.91708531431e-05 0)
(0.000580705215144 1.78077915436e-05 0)
(0.000573616725288 1.65310954889e-05 0)
(0.000567028740995 1.53355144753e-05 0)
(0.000560910844679 1.421593789e-05 0)
(0.000555234318373 1.31674594908e-05 0)
(0.000549972103314 1.21854278767e-05 0)
(0.000545098736237 1.12654879766e-05 0)
(0.000540590266322 1.04036178978e-05 0)
(0.000536424155511 9.59616510977e-06 0)
(0.000532579163791 8.83988559047e-06 0)
(0.000529035220287 8.13198946703e-06 0)
(0.000525773280357 7.47019652193e-06 0)
(0.000522775168703 6.85280487204e-06 0)
(0.000520023408697 6.27877575069e-06 0)
(0.000517501039064 5.74783659645e-06 0)
(0.000515191421032 5.260602813e-06 0)
(0.000513078042646 4.81871492017e-06 0)
(0.000511144332918 4.42498037201e-06 0)
(0.000509373507935 4.08349501381e-06 0)
(0.000507748485192 3.79969134837e-06 0)
(0.000506251922226 3.58020704857e-06 0)
(0.0005048664592 3.43236151204e-06 0)
(0.000503575260719 3.36281815509e-06 0)
(0.000502362908971 3.37458959124e-06 0)
(0.000501216415463 3.46075031662e-06 0)
(0.000500125014703 3.59217572721e-06 0)
(0.000499074902569 3.69805986834e-06 0)
(0.00121275970442 0.000152736019358 0)
(0.00124132849603 0.000327401689853 0)
(0.00126483804351 0.00039872157273 0)
(0.00127038592424 0.000408394812046 0)
(0.00125825119858 0.000387563167442 0)
(0.00123309097062 0.000354016193046 0)
(0.00119975508671 0.00031684944276 0)
(0.00116208675163 0.000280409551708 0)
(0.0011228295493 0.000246599264679 0)
(0.0010838298138 0.000216097426393 0)
(0.00104627030986 0.000188987308063 0)
(0.00101086556153 0.000165077579509 0)
(0.000978009222987 0.00014406516357 0)
(0.000947880336392 0.000125616537796 0)
(0.000920518090607 0.000109406811508 0)
(0.000895873585908 9.51369616791e-05 0)
(0.000873845226856 8.25398955678e-05 0)
(0.000854302629242 7.13809599986e-05 0)
(0.000837102548427 6.14558592155e-05 0)
(0.000822099307545 5.25875286021e-05 0)
(0.000809151459776 4.46227538607e-05 0)
(0.000798125890069 3.74289193811e-05 0)
(0.000788900189973 3.08910538677e-05 0)
(0.000781363879787 2.49092291474e-05 0)
(0.000775418871777 1.93963121258e-05 0)
(0.000770979443124 1.42760443491e-05 0)
(0.00076797190047 9.48141419549e-06 0)
(0.000766334057719 4.95328569373e-06 0)
(0.000766014606792 6.39251030352e-07 0)
(0.000766972431377 -3.50732140059e-06 0)
(0.000769175891675 -7.52805819367e-06 0)
(0.000772602097515 -1.14602098206e-05 0)
(0.00077723617454 -1.53371344743e-05 0)
(0.000783070515959 -1.9188643558e-05 0)
(0.000790104008619 -2.30412135821e-05 0)
(0.000798341216207 -2.69180621067e-05 0)
(0.000807791496945 -3.08390808309e-05 0)
(0.000818468027965 -3.48206145383e-05 0)
(0.000830386703551 -3.88750707984e-05 0)
(0.000843564869429 -4.30103422203e-05 0)
(0.000858019850511 -4.72290214993e-05 0)
(0.000873767225225 -5.15273901973e-05 0)
(0.000890818796414 -5.58941667931e-05 0)
(0.000909180207684 -6.03090096651e-05 0)
(0.00092884815639 -6.47407890876e-05 0)
(0.000949807162224 -6.91456716948e-05 0)
(0.000972025866211 -7.34651046457e-05 0)
(0.000995452862461 -7.76238472051e-05 0)
(0.00102001210839 -8.15282757726e-05 0)
(0.00104559802288 -8.50652811572e-05 0)
(0.0010720704699 -8.81021748123e-05 0)
(0.00109924993861 -9.04881043317e-05 0)
(0.00112691336541 -9.20575176724e-05 0)
(0.00115479118593 -9.26361697951e-05 0)
(0.00118256632855 -9.20499926604e-05 0)
(0.00120987592812 -9.01368191159e-05 0)
(0.00123631650297 -8.67604635987e-05 0)
(0.00126145315545 -8.18260622133e-05 0)
(0.0012848330008 -7.52949555401e-05 0)
(0.00130600250011 -6.71968953679e-05 0)
(0.00132452770877 -5.7637145098e-05 0)
(0.00134001574329 -4.67963251755e-05 0)
(0.00135213518218 -3.49218141853e-05 0)
(0.001360632894 -2.23111667345e-05 0)
(0.00136534515727 -9.28998185554e-06 0)
(0.0013662019441 3.81182930226e-06 0)
(0.00136322459588 1.66811473878e-05 0)
(0.00135651831598 2.9037045093e-05 0)
(0.00134626149324 4.06395763706e-05 0)
(0.00133269375284 5.12928851635e-05 0)
(0.00131610403806 6.08446264745e-05 0)
(0.00129681930191 6.91838352483e-05 0)
(0.00127519382253 7.6238741358e-05 0)
(0.00125159889655 8.19750982975e-05 0)
(0.00122641270077 8.63947780317e-05 0)
(0.00120001033654 8.95339353928e-05 0)
(0.00117275434115 9.14600244033e-05 0)
(0.00114498614217 9.22672650854e-05 0)
(0.00111701897414 9.20706299962e-05 0)
(0.0010891326655 9.09988475637e-05 0)
(0.00106157048918 8.91871622314e-05 0)
(0.00103453802661 8.67706054332e-05 0)
(0.00100820379195 8.38783619655e-05 0)
(0.000982701238329 8.06295569074e-05 0)
(0.000958131726119 7.7130529834e-05 0)
(0.000934568057861 7.34734653444e-05 0)
(0.000912058248253 6.97361325184e-05 0)
(0.00089062927696 6.59824440194e-05 0)
(0.000870290649653 6.22635568509e-05 0)
(0.000851037659211 5.86192786534e-05 0)
(0.000832854291072 5.50795968818e-05 0)
(0.000815715754473 5.16662012356e-05 0)
(0.000799590646833 4.83939153504e-05 0)