/*--------------------------------*- C++ -*----------------------------------*\
  =========                 |
  \\      /  F ield         | OpenFOAM: The Open Source CFD Toolbox
   \\    /   O peration     | Website:  https://openfoam.org
    \\  /    A nd           | Version:  7
     \\/     M anipulation  |
\*---------------------------------------------------------------------------*/
FoamFile
{
    version     2.0;
    format      ascii;
    class       volScalarField;
    location    "6.000048e+08";
    object      K;
}
// * * * * * * * * * * * * * * * * * * * * * * * * * * * * * * * * * * * * * //

dimensions      [0 2 0 0 0 0 0];

internalField   nonuniform List<scalar> 
80
(
2.6201e-10
2.6201e-10
2.61685e-10
2.47295e-10
1.97065e-10
1.21732e-10
5.8832e-11
2.86114e-11
1.79064e-11
1.41345e-11
1.27268e-11
1.21892e-11
1.19844e-11
1.19071e-11
1.18781e-11
1.18672e-11
1.18631e-11
1.18616e-11
1.1861e-11
1.18608e-11
1.18606e-11
1.18606e-11
1.18606e-11
1.18606e-11
1.18606e-11
1.18606e-11
1.18606e-11
1.18606e-11
1.18606e-11
1.18606e-11
1.18606e-11
1.18606e-11
1.18606e-11
1.18606e-11
1.18606e-11
1.18605e-11
1.18605e-11
1.18605e-11
1.18605e-11
1.18605e-11
1.18605e-11
1.18605e-11
1.18605e-11
1.18605e-11
1.18605e-11
1.18605e-11
1.18605e-11
1.18605e-11
1.18605e-11
1.18605e-11
1.18605e-11
1.18605e-11
1.18605e-11
1.18605e-11
1.18605e-11
1.18605e-11
1.18605e-11
1.18605e-11
1.18605e-11
1.18605e-11
1.18605e-11
1.18605e-11
1.18605e-11
1.18605e-11
1.18605e-11
1.18605e-11
1.18605e-11
1.18605e-11
1.18605e-11
1.18605e-11
1.18605e-11
1.18605e-11
1.18605e-11
1.18605e-11
1.18605e-11
1.18605e-11
1.18604e-11
1.18604e-11
1.18604e-11
1.18604e-11
)
;

boundaryField
{
    outlet
    {
        type            zeroGradient;
    }
    inlet
    {
        type            zeroGradient;
    }
    frontAndBack
    {
        type            empty;
    }
}


// ************************************************************************* //
