/*--------------------------------*- C++ -*----------------------------------*\
  =========                 |
  \\      /  F ield         | OpenFOAM: The Open Source CFD Toolbox
   \\    /   O peration     | Website:  https://openfoam.org
    \\  /    A nd           | Version:  7
     \\/     M anipulation  |
\*---------------------------------------------------------------------------*/
FoamFile
{
    version     2.0;
    format      ascii;
    class       volScalarField;
    location    "2.849904e+08";
    object      K;
}
// * * * * * * * * * * * * * * * * * * * * * * * * * * * * * * * * * * * * * //

dimensions      [0 2 0 0 0 0 0];

internalField   nonuniform List<scalar> 
80
(
2.01214e-10
1.59788e-10
8.91887e-11
4.00661e-11
2.14434e-11
1.52923e-11
1.31261e-11
1.23282e-11
1.20322e-11
1.19232e-11
1.18834e-11
1.1869e-11
1.18638e-11
1.1862e-11
1.18612e-11
1.18608e-11
1.18607e-11
1.18607e-11
1.18607e-11
1.18607e-11
1.18606e-11
1.18606e-11
1.18606e-11
1.18606e-11
1.18606e-11
1.18606e-11
1.18606e-11
1.18606e-11
1.18606e-11
1.18606e-11
1.18606e-11
1.18606e-11
1.18606e-11
1.18606e-11
1.18606e-11
1.18605e-11
1.18605e-11
1.18605e-11
1.18605e-11
1.18605e-11
1.18605e-11
1.18605e-11
1.18605e-11
1.18605e-11
1.18605e-11
1.18605e-11
1.18605e-11
1.18605e-11
1.18605e-11
1.18605e-11
1.18605e-11
1.18605e-11
1.18605e-11
1.18605e-11
1.18605e-11
1.18605e-11
1.18605e-11
1.18605e-11
1.18605e-11
1.18605e-11
1.18605e-11
1.18605e-11
1.18605e-11
1.18605e-11
1.18605e-11
1.18605e-11
1.18605e-11
1.18605e-11
1.18605e-11
1.18605e-11
1.18605e-11
1.18605e-11
1.18605e-11
1.18605e-11
1.18605e-11
1.18605e-11
1.18604e-11
1.18604e-11
1.18604e-11
1.18604e-11
)
;

boundaryField
{
    outlet
    {
        type            zeroGradient;
    }
    inlet
    {
        type            zeroGradient;
    }
    frontAndBack
    {
        type            empty;
    }
}


// ************************************************************************* //
