/*--------------------------------*- C++ -*----------------------------------*\
  =========                 |
  \\      /  F ield         | OpenFOAM: The Open Source CFD Toolbox
   \\    /   O peration     | Website:  https://openfoam.org
    \\  /    A nd           | Version:  7
     \\/     M anipulation  |
\*---------------------------------------------------------------------------*/
FoamFile
{
    version     2.0;
    format      ascii;
    class       volScalarField;
    location    "3360";
    object      p;
}
// * * * * * * * * * * * * * * * * * * * * * * * * * * * * * * * * * * * * * //

dimensions      [0 2 -2 0 0 0 0];

internalField   nonuniform List<scalar> 
8192
(
0.000545710506234
0.00037415324282
0.000288517993551
0.000244378194286
0.000219324895584
0.000204060070478
0.000194167072783
0.000187401949763
0.000182558002587
0.000178951167076
0.00017617392814
0.000173972160502
0.0001721807622
0.000170688557868
0.000169418353787
0.000168315144583
0.00016733887419
0.000166459836013
0.000165655656267
0.000164909258595
0.000164207455118
0.000163539948736
0.000162898611823
0.000162276955077
0.00016166972933
0.000161072622137
0.000160482022337
0.000159894834116
0.00015930832671
0.000158720010014
0.000158127527947
0.000157528564313
0.000156920756305
0.000156301611614
0.00015566842544
0.000155018194885
0.00015434752781
0.00015365254439
0.000152928769182
0.000152171012945
0.000151373243434
0.000150528446455
0.000149628479324
0.000148663922193
0.000147623935029
0.00014649613316
0.000145266498427
0.00014391934979
0.000142437402185
0.000140801948583
0.000138993201878
0.000136990832581
0.000134774728704
0.000132325987911
0.000129628123555
0.00012666843094
0.00012343941715
0.000119940158431
0.000116177417943
0.000112166349456
0.000107930634312
0.000103501960361
9.89188438389e-05
9.42249062929e-05
8.94668139036e-05
8.46921389633e-05
7.99473900437e-05
7.52763868663e-05
7.07190474064e-05
6.63105703148e-05
6.20809389746e-05
5.80546567596e-05
5.42506381183e-05
5.06822143468e-05
4.73572450867e-05
4.42783502491e-05
4.144328156e-05
3.88454436757e-05
3.64745525813e-05
3.43173968381e-05
3.23586486677e-05
3.05816662392e-05
2.89692323037e-05
2.75041887756e-05
2.61699434151e-05
2.49508428635e-05
2.38324191592e-05
2.28015267964e-05
2.18463910063e-05
2.09565894959e-05
2.01229873848e-05
1.93376427479e-05
1.85936959262e-05
1.78852530125e-05
1.72072702719e-05
1.65554444225e-05
1.59261112359e-05
1.53161540862e-05
1.47229225953e-05
1.41441613719e-05
1.35779479983e-05
1.30226396218e-05
1.24768270254e-05
1.19392953947e-05
1.14089907055e-05
1.08849910201e-05
1.03664817923e-05
9.85273460884e-06
9.34308868033e-06
8.83693467042e-06
8.33370041388e-06
7.8328383176e-06
7.33381431259e-06
6.83609851124e-06
6.33915802076e-06
5.84245288945e-06
5.3454370063e-06
4.84756711671e-06
4.34832553607e-06
3.84726623502e-06
3.34410169687e-06
2.83886233918e-06
2.33218923952e-06
1.82588098541e-06
1.32395173598e-06
8.34795724372e-07
3.7650622869e-07
3.91833758087e-08
0.000396804394837
0.000333282855435
0.000283577577098
0.000250904975728
0.000228960414037
0.000213755591916
0.000202913130836
0.000194968963202
0.000188998297267
0.000184402961753
0.000180786945713
0.000177882019962
0.000175502462047
0.000173516980437
0.000171830963352
0.000170375028368
0.000169097485084
0.000167959273125
0.00016693049558
0.000165988000357
0.000165113662491
0.00016429314385
0.000163514983296
0.000162769919388
0.000162050378805
0.00016135008457
0.000160663751507
0.000159986845927
0.000159315392495
0.000158645816055
0.00015797480833
0.00015729921301
0.000156615923613
0.000155921789182
0.000155213523931
0.000154487618057
0.000153740246932
0.00015296717689
0.000152163665849
0.000151324358168
0.00015044317345
0.000149513190699
0.000148526530165
0.000147474237903
0.000146346180063
0.000145130957915
0.000143815857908
0.000142386856101
0.000140828700034
0.000139125095367
0.000137259025533
0.000135213231379
0.0001329708698
0.000130516356778
0.000127836377568
0.000124921018486
0.000121764940924
0.000118368487023
0.000114738582184
0.000110889293771
0.000106841922766
0.000102624553804
9.8271063474e-05
9.38196772758e-05
8.93112447636e-05
8.47874458532e-05
8.02891321028e-05
7.58549488339e-05
7.15202912751e-05
6.73165819151e-05
6.32708125537e-05
5.94052797417e-05
5.57374556361e-05
5.22799630485e-05
4.90406485551e-05
4.602276524e-05
4.32252796184e-05
4.06433089753e-05
3.82686772607e-05
3.60905594778e-05
3.40961698779e-05
3.22714449093e-05
3.06016755191e-05
2.9072055212e-05
2.76681239578e-05
2.63761025054e-05
2.51831222062e-05
2.4077363354e-05
2.30481182422e-05
2.20857964582e-05
2.11818883017e-05
2.03289004338e-05
1.95202747578e-05
1.87502993243e-05
1.80140172906e-05
1.73071383965e-05
1.66259555011e-05
1.59672679093e-05
1.53283120436e-05
1.47066997442e-05
1.41003638055e-05
1.3507510395e-05
1.29265776208e-05
1.23561996933e-05
1.17951759102e-05
1.12424439178e-05
1.06970565796e-05
1.01581619998e-05
9.62498619396e-06
9.09681809775e-06
8.572996612e-06
8.05289958324e-06
7.53593471944e-06
7.02153270313e-06
6.50914304774e-06
5.99823371336e-06
5.48829619031e-06
4.97885880167e-06
4.46951265771e-06
3.95995726592e-06
3.45007704988e-06
2.94006680982e-06
2.43063563824e-06
1.92333856889e-06
1.42112041936e-06
9.29246348022e-07
4.56531476411e-07
7.44423130767e-08
0.000313876758685
0.000291198208964
0.000265190027096
0.000243934586248
0.000227796143337
0.00021546705039
0.000205928786719
0.000198454315289
0.000192521969345
0.000187752737538
0.000183868410161
0.000180662970752
0.000177982579325
0.000175711379043
0.000173761357789
0.000172065067104
0.000170570364249
0.000169236591078
0.000168031776479
0.000166930571489
0.000165912711657
0.00016496186162
0.00016406473854
0.00016321044086
0.000162389929033
0.00016159561986
0.000160821065915
0.000160060699317
0.000159309623887
0.000158563444252
0.000157818121485
0.000157069849558
0.000156314947022
0.000155549758644
0.000154770563392
0.000153973486139
0.000153154410366
0.000152308890311
0.000151432060876
0.000150518544893
0.000149562357391
0.00014855680823
0.000147494404927
0.000146366760004
0.000145164508479
0.000143877244624
0.000142493489467
0.000141000704968
0.000139385373581
0.000137633166027
0.000135729220863
0.000133658559346
0.000131406652671
0.000128960148269
0.000126307742561
0.000123441163694
0.000120356197526
0.000117053661937
0.000113540210636
0.000109828839677
0.00010593898141
0.000101896111791
9.77308638409e-05
9.34777266106e-05
8.9173487281e-05
8.48556179603e-05
8.05608004513e-05
7.63237235146e-05
7.21761884216e-05
6.81464998785e-05
6.42590837286e-05
6.05342614478e-05
5.69881294282e-05
5.36325190142e-05
5.04750369966e-05
4.75192025425e-05
4.47646978362e-05
4.22077407164e-05
3.9841568933e-05
3.76570078837e-05
3.56430795805e-05
3.37876073053e-05
3.20777744822e-05
3.05006082076e-05
2.90433705896e-05
2.76938543173e-05
2.64405877517e-05
2.52729615312e-05
2.41812908066e-05
2.31568281951e-05
2.21917407304e-05
2.12790626562e-05
2.04126330976e-05
1.95870259859e-05
1.87974772048e-05
1.80398128089e-05
1.73103804778e-05
1.66059858387e-05
1.59238342133e-05
1.52614782175e-05
1.46167709825e-05
1.39878248617e-05
1.33729750866e-05
1.27707480253e-05
1.21798334532e-05
1.15990604586e-05
1.10273764607e-05
1.04638290159e-05
9.90755001738e-06
9.35774206493e-06
8.81366678326e-06
8.27463502093e-06
7.73999895159e-06
7.20914627206e-06
6.68149691315e-06
6.15650294426e-06
5.6336528025e-06
5.11248147982e-06
4.59258917491e-06
4.07367194959e-06
3.5555696565e-06
3.03833867128e-06
2.52236074684e-06
2.00850448819e-06
1.49836185224e-06
9.94533651829e-07
5.0042666754e-07
8.41067787483e-08
0.000269355104403
0.000260948535579
0.000246735090053
0.000232921419379
0.000221472590297
0.000212178810816
0.000204588062629
0.000198332567113
0.000193134451033
0.000188781262547
0.000185107247498
0.000181981279681
0.000179298815119
0.000176976138917
0.000174946016979
0.000173154306816
0.000171557280761
0.000170119503205
0.000168812146273
0.000167611653714
0.000166498680637
0.000165457251159
0.000164474087542
0.000163538074178
0.000162639827357
0.000161771348126
0.000160925740215
0.000160096979068
0.00015927972071
0.000158469142131
0.000157660804319
0.000156850534383
0.000156034322325
0.000155208227132
0.000154368289692
0.000153510450085
0.000152630467043
0.00015172383801
0.000150785718453
0.000149810839801
0.000148793425729
0.000147727107524
0.000146604840028
0.00014541882124
0.000144160420126
0.00014282011975
0.000141387485289
0.000139851170133
0.000138198976581
0.000136417991471
0.000134494819341
0.000132415936523
0.000130168185793
0.000127739422559
0.000125119307099
0.000122300214306
0.000119278202999
0.000116053956601
0.00011263358041
0.000109029126931
0.000105258726851
0.000101346239089
9.73204014255e-05
9.32135568647e-05
8.90601223588e-05
8.48950172103e-05
8.0752260741e-05
7.66638770009e-05
7.26591222252e-05
6.87639906554e-05
6.50009257329e-05
6.13886546288e-05
5.79420932592e-05
5.46723023224e-05
5.15865024438e-05
4.86881729422e-05
4.59772596248e-05
4.34505048871e-05
4.11018920532e-05
3.89231747901e-05
3.69044476062e-05
3.5034710103e-05
3.33023837632e-05
3.16957531293e-05
3.0203317359e-05
2.8814051018e-05
2.75175815842e-05
2.63042964068e-05
2.51653933639e-05
2.40928892879e-05
2.30795983189e-05
2.21190904072e-05
2.12056377464e-05
2.03341551369e-05
1.95001383986e-05
1.86996038126e-05
1.79290303656e-05
1.71853059916e-05
1.64656782954e-05
1.57677100248e-05
1.50892391556e-05
1.44283434361e-05
1.37833090116e-05
1.31526028224e-05
1.25348483485e-05
1.19288043756e-05
1.13333463984e-05
1.0747450382e-05
1.01701785827e-05
9.60066723059e-06
9.03811588659e-06
8.48177838944e-06
7.93095535318e-06
7.38498829209e-06
6.84325555117e-06
6.30517037602e-06
5.77018165334e-06
5.23777811151e-06
4.70749716246e-06
4.17894010498e-06
3.65179630962e-06
3.12588035242e-06
2.60118801547e-06
2.07797792991e-06
1.55687293349e-06
1.03887911577e-06
5.24761910504e-07
8.56515006648e-08
0.000241772505272
0.000239775629979
0.000231948412482
0.0002227301935
0.000214426506385
0.000207375150275
0.000201419424407
0.000196354158061
0.00019201106051
0.000188260439745
0.000185000980455
0.000182151376625
0.000179644953804
0.000177426303881
0.00017544906007
0.000173674296313
0.000172069285413
0.000170606486538
0.000169262698507
0.000168018344862
0.000166856869193
0.000165764224595
0.000164728443599
0.000163739276623
0.000162787888211
0.000161866601721
0.000160968684198
0.000160088164427
0.000159219678124
0.000158358335453
0.000157499604373
0.000156639208883
0.000155773039112
0.000154897068389
0.000154007275981
0.000153099573576
0.000152169733739
0.000151213319002
0.00015022561039
0.000149201534692
0.000148135590034
0.000147021770039
0.000145853487467
0.000144623499455
0.000143323837733
0.000141945749392
0.000140479656107
0.000138915143255
0.000137240993964
0.000135445287633
0.000133515586005
0.000131439232412
0.000129203788323
0.000126797624741
0.000124210671027
0.000121435300629
0.000118467301972
0.00011530684855
0.000111959349975
0.000108436044725
0.000104754194113
0.000100936768597
9.70115902656e-05
9.30100058213e-05
8.89652802628e-05
8.49109673197e-05
8.08795039292e-05
7.69011808504e-05
7.30034786706e-05
6.92106925798e-05
6.5543748377e-05
6.202010763e-05
5.86537047583e-05
5.54549015841e-05
5.2430477941e-05
4.95836952686e-05
4.69144700613e-05
4.44196778152e-05
4.20935812461e-05
3.99283502503e-05
3.79146238417e-05
3.60420613982e-05
3.42998394178e-05
3.26770660107e-05
3.11631018249e-05
2.97477897148e-05
2.84216038774e-05
2.71757333631e-05
2.60021153279e-05
2.48934321381e-05
2.38430839517e-05
2.28451459923e-05
2.18943172697e-05
2.09858656655e-05
2.0115572649e-05
1.92796798319e-05
1.84748386243e-05
1.7698063751e-05
1.69466908861e-05
1.62183384738e-05
1.55108735552e-05
1.48223813837e-05
1.41511384952e-05
1.34955889317e-05
1.28543232673e-05
1.22260601401e-05
1.16096299817e-05
1.10039606909e-05
1.04080650084e-05
9.821029398e-06
9.24200426488e-06
8.67019538801e-06
8.10485648214e-06
7.5452828536e-06
6.99080618213e-06
6.44079052894e-06
5.89462980141e-06
5.35174705504e-06
4.81159630703e-06
4.27366793582e-06
3.73749941403e-06
3.20269384882e-06
2.66894884413e-06
2.1360932418e-06
1.60410282386e-06
1.07296156616e-06
5.41959011465e-07
8.58937090343e-08
0.000223460559222
0.00022431868337
0.000220242703845
0.000214080067005
0.000207962142919
0.000202510494776
0.000197775432214
0.000193661831203
0.000190062878626
0.00018688989262
0.000184073343346
0.000181558300985
0.000179300240447
0.00017726214452
0.000175412655428
0.000173724893951
0.000172175666436
0.000170744890433
0.000169415145769
0.000168171302645
0.000167000202329
0.000165890378152
0.000164831810056
0.000163815708516
0.000162834324534
0.000161880782878
0.000160948935783
0.000160033234545
0.000159128616704
0.000158230406214
0.000157334222736
0.000156435900909
0.000155531417902
0.000154616824936
0.000153688182555
0.000152741498266
0.00015177266519
0.000150777400631
0.000149751183518
0.000148689189958
0.00014758622628
0.000146436659462
0.000145234345225
0.000143972555051
0.00014264390444
0.000141240286612
0.00013975281816
0.000138171806645
0.000136486754223
0.000134686416658
0.000132758942234
0.000130692119623
0.000128473764927
0.000126092273716
0.0001235373503
0.00012080090244
0.000117878055331
0.000114768198476
0.000111475939141
0.000108011805384
0.000104392530792
0.000100640778429
9.67842408152e-05
9.28541889678e-05
8.8883698769e-05
8.49058749665e-05
8.09523821622e-05
7.70524585511e-05
7.32323644839e-05
6.95151415622e-05
6.59205490258e-05
6.24650484296e-05
5.91617741831e-05
5.60204825443e-05
5.3047511727e-05
5.02458067067e-05
4.76150610478e-05
4.51520060103e-05
4.28508420121e-05
4.07037734728e-05
3.87015872505e-05
3.68342129467e-05
3.5091216469e-05
3.34621989208e-05
3.19370928168e-05
3.05063625687e-05
2.91611244023e-05
2.78932038112e-05
2.66951477683e-05
2.55602063882e-05
2.4482295449e-05
2.34559482442e-05
2.24762626132e-05
2.15388471128e-05
2.06397687702e-05
1.97755039062e-05
1.89428927558e-05
1.81390982162e-05
1.73615687003e-05
1.66080049522e-05
1.58763305301e-05
1.51646656618e-05
1.44713041145e-05
1.37946927693e-05
1.31334135672e-05
1.24861675502e-05
1.18517607165e-05
1.12290914626e-05
1.06171393867e-05
1.00149552751e-05
9.4216520983e-06
8.83639688516e-06
8.25840335336e-06
7.6869252185e-06
7.12125013107e-06
6.56069425395e-06
6.00459757298e-06
5.45232016642e-06
4.90323985612e-06
4.35675192013e-06
3.81227177059e-06
3.26924121502e-06
2.72713654574e-06
2.18546717877e-06
1.64372276762e-06
1.10114637521e-06
5.56086750332e-07
8.63987654078e-08
0.000210611813455
0.000212691214858
0.000210854939586
0.000206806214594
0.000202293974249
0.000198034326429
0.000194216178535
0.000190833636719
0.000187829140739
0.000185142125199
0.000182721478768
0.000180526348058
0.00017852408457
0.000176688074453
0.000174996091798
0.000173429176326
0.000171970893796
0.00017060684426
0.00016932432169
0.000168112063751
0.000166960055415
0.000165859365893
0.00016480200763
0.000163780811313
0.000162789313578
0.000161821655482
0.000160872490416
0.00015993690046
0.000159010320783
0.000158088469653
0.000157167282924
0.000156242854336
0.000155311380745
0.000154369108657
0.000153412282553
0.000152437094019
0.000151439630698
0.00015041582415
0.000149361395683
0.000148271799328
0.00014714216118
0.000145967214581
0.000144741230901
0.000143457946323
0.000142110485957
0.000140691288143
0.000139192034129
0.000137603591685
0.000135915985899
0.000134118416515
0.00013219934817
0.000130146706872
0.000127948220404
0.00012559193872
0.000123066958403
0.000120364349982
0.00011747824804
0.000114407016153
0.00011115434893
0.000107730130651
0.000104150845647
0.000100439350387
9.66239022935e-05
9.27365123728e-05
8.88109042757e-05
8.48804983865e-05
8.09768245528e-05
7.71285721013e-05
7.33611740768e-05
6.96967310759e-05
6.61540911741e-05
6.27489241933e-05
5.94937239907e-05
5.63977423883e-05
5.3466906227e-05
5.07037932178e-05
4.81077394833e-05
4.56751216356e-05
4.33998090232e-05
4.127373667e-05
3.92875237915e-05
3.74310627987e-05
3.56940233051e-05
3.40662430513e-05
3.25380023412e-05
3.11001951663e-05
2.9744418024e-05
2.84629986671e-05
2.72489844156e-05
2.60961055494e-05
2.49987250943e-05
2.39517827302e-05
2.29507377912e-05
2.19915143449e-05
2.10704499893e-05
2.01842491258e-05
1.93299409233e-05
1.85048418568e-05
1.77065225349e-05
1.69327784353e-05
1.6181604144e-05
1.54511706928e-05
1.47398056153e-05
1.40459753656e-05
1.3368269787e-05
1.27053883391e-05
1.20561278365e-05
1.14193714684e-05
1.07940789035e-05
1.01792772994e-05
9.57405306126e-06
8.97754420638e-06
8.38893321611e-06
7.80744027033e-06
7.2323167934e-06
6.66283927229e-06
6.09830336765e-06
5.53801840389e-06
4.98130239866e-06
4.42747777955e-06
3.87586761538e-06
3.32579086971e-06
2.77655110076e-06
2.22740184841e-06
1.6774450891e-06
1.1253696075e-06
5.68903102589e-07
8.79419334143e-08
0.000201178872963
0.000203717523629
0.000203226644853
0.00020065923617
0.000197362803279
0.000194031075072
0.000190928731564
0.00018811760804
0.000185583075429
0.000183289369201
0.000181199989285
0.000179283599558
0.000177514655749
0.000175872475514
0.000174340093734
0.000172903306977
0.000171549970929
0.000170269510204
0.000169052581577
0.000167890840222
0.000166776772363
0.000165703569914
0.00016466503153
0.000163655480544
0.000162669694052
0.00016170283977
0.000160750418615
0.000159808211768
0.000158872232524
0.000157938678904
0.000157003888606
0.000156064297187
0.000155116398447
0.000154156704404
0.000153181705477
0.000152187830191
0.000151171403617
0.000150128603774
0.000149055415082
0.000147947577987
0.00014680053377
0.000145609363643
0.000144368721353
0.000143072758867
0.000141715045417
0.000140288481436
0.000138785211041
0.00013719654012
0.000135512872141
0.000133723680944
0.000131817548755
0.000129782307692
0.000127605331203
0.000125274024187
0.000122776550667
0.000120102811356
0.000117245638836
0.000114202120602
0.000110974898406
0.000107573235051
0.000104013596908
0.000100319496772
9.65204273441e-05
9.26499348069e-05
8.87431888649e-05
8.48346150865e-05
8.09561339795e-05
7.71362575224e-05
7.33998554645e-05
6.97682924097e-05
6.62596832379e-05
6.28890683043e-05
5.96684425845e-05
5.66066593934e-05
5.37092849268e-05
5.09785081555e-05
4.84132063642e-05
4.60092259507e-05
4.37598735833e-05
4.16565521771e-05
3.96894441082e-05
3.78481480178e-05
3.61222047582e-05
3.45014850583e-05
3.29764421414e-05
3.15382509969e-05
3.01788627389e-05
2.88910014255e-05
2.76681257037e-05
2.65043717299e-05
2.53944884244e-05
2.43337719745e-05
2.33180035046e-05
2.23433919062e-05
2.14065225702e-05
2.05043120842e-05
1.96339685445e-05
1.87929569787e-05
1.79789692851e-05
1.7189898125e-05
1.64238142156e-05
1.56789465471e-05
1.49536650842e-05
1.42464655827e-05
1.35559561889e-05
1.28808455447e-05
1.22199321491e-05
1.1572094767e-05
1.09362836946e-05
1.03115127204e-05
9.69685162837e-06
9.0914191167e-06
8.49437600597e-06
7.90491863523e-06
7.32227234855e-06
6.74568499688e-06
6.1744203819e-06
5.60775156131e-06
5.04495384066e-06
4.48529699315e-06
3.92803544295e-06
3.37239313027e-06
2.8175349831e-06
2.26250644371e-06
1.70610276234e-06
1.14660496785e-06
5.81329412387e-07
9.09706587257e-08
0.000193993843244
0.000196639233758
0.000196955831298
0.000195430780412
0.000193065990512
0.000190475914815
0.0001879525963
0.000185602906801
0.000183447294753
0.000181472539624
0.000179655753762
0.000177973913101
0.000176406927031
0.000174938111091
0.000173553768549
0.000172242574802
0.000170995013689
0.000169802931609
0.000168659207005
0.000167557512447
0.000166492144674
0.00016545790207
0.000164449994288
0.000163463973241
0.000162495678183
0.000161541190052
0.000160596791944
0.00015965893363
0.000158724200635
0.00015778928144
0.000156850936661
0.000155905970695
0.000154951203511
0.000153983441303
0.000152999446406
0.000151995905848
0.000150969397914
0.000149916355937
0.000148833028455
0.00014771543469
0.000146559314222
0.000145360069522
0.000144112700049
0.000142811726632
0.000141451105296
0.000140024130592
0.000138523330373
0.000136940357167
0.000135265886749
0.000133489542574
0.000131599875996
0.000129584445701
0.000127430053077
0.000125123197614
0.000122650810154
0.000120001294009
0.000117165852372
0.00011414001092
0.000110925168689
0.00010752993626
0.00010397095342
0.000100272843088
9.64670317952e-05
9.25894441773e-05
8.86775247763e-05
8.47673734772e-05
8.08917506378e-05
7.70792533001e-05
7.33543408933e-05
6.97377560753e-05
6.62469964335e-05
6.28966018131e-05
5.96982009041e-05
5.66603629454e-05
5.37883623289e-05
5.10839976486e-05
4.85456022755e-05
4.61683287691e-05
4.39447002005e-05
4.18653386448e-05
3.99197411069e-05
3.80969839815e-05
3.63862808494e-05
3.47773686041e-05
3.3260735105e-05
3.1827721508e-05
3.04705371448e-05
2.91822203218e-05
2.79565703891e-05
2.67880682436e-05
2.56717958343e-05
2.46033604469e-05
2.35788264817e-05
2.2594655537e-05
2.16476546206e-05
2.07349317745e-05
1.98538582367e-05
1.90020362096e-05
1.81772713905e-05
1.7377549488e-05
1.66010160764e-05
1.58459592157e-05
1.51107943751e-05
1.43940512553e-05
1.36943621856e-05
1.30104518108e-05
1.2341127839e-05
1.16852726435e-05
1.10418355512e-05
1.04098256615e-05
9.78830506128e-06
9.1763823119e-06
8.57320609084e-06
7.97795887533e-06
7.3898505504e-06
6.80811180975e-06
6.23198717131e-06
5.66072732971e-06
5.09358032694e-06
4.52978050811e-06
3.96853310009e-06
3.40898990848e-06
2.85020691415e-06
2.291065953e-06
1.73012989085e-06
1.16539173661e-06
5.93902128352e-07
9.5781093667e-08
0.000188358305608
0.000190952024698
0.00019174954645
0.000190958799496
0.000189310210972
0.000187320176267
0.000185276264722
0.00018331029925
0.000181468715279
0.000179757609822
0.000178166800183
0.000176681255265
0.000175285945886
0.000173967562262
0.000172714860993
0.000171518481838
0.000170370610063
0.000169264638144
0.000168194879606
0.000167156344651
0.000166144570924
0.000165155498177
0.000164185375854
0.000163230694418
0.000162288133385
0.000161354520858
0.000160426800869
0.000159502005794
0.000158577234281
0.000157649626979
0.000156716343621
0.000155774544015
0.00015482136737
0.000153853910656
0.000152869205776
0.000151864194985
0.000150835703934
0.000149780411563
0.000148694815912
0.000147575194717
0.000146417559403
0.000145217600822
0.000143970624812
0.000142671475468
0.000141314444067
0.000139893162076
0.000138400478128
0.000136828321809
0.000135167562608
0.000133407881402
0.000131537685358
0.000129544114949
0.000127413211249
0.000125130326391
0.000122680859093
0.000120051368912
0.000117231062406
0.000114213559873
0.000110998759206
0.000107594522258
0.000104017812879
0.000100294829004
9.64597050568e-05
9.25517028295e-05
8.86114667443e-05
8.46774633145e-05
8.07836841364e-05
7.69589700535e-05
7.32274173106e-05
6.96091793786e-05
6.61212032572e-05
6.27776370953e-05
5.95898781427e-05
5.65663425461e-05
5.37121029317e-05
5.1028581935e-05
4.85134886469e-05
4.6161111888e-05
4.39629589705e-05
4.19086140843e-05
3.99866406703e-05
3.81853752331e-05
3.64935252484e-05
3.49005521006e-05
3.33968669868e-05
3.19738883796e-05
3.06240105404e-05
2.93405233249e-05
2.81175115019e-05
2.69497510965e-05
2.58326122992e-05
2.47619732322e-05
2.37341457462e-05
2.27458127607e-05
2.17939759019e-05
2.08759119585e-05
1.99891366966e-05
1.91313747312e-05
1.83005343321e-05
1.7494686237e-05
1.67120457047e-05
1.59509571931e-05
1.52098811555e-05
1.44873825547e-05
1.37821207585e-05
1.30928405543e-05
1.24183640528e-05
1.17575833027e-05
1.11094534497e-05
1.04729863111e-05
9.84724423155e-06
9.23133411402e-06
8.62440149988e-06
8.02562458391e-06
7.43420800867e-06
6.84937625262e-06
6.27036631553e-06
5.69641923833e-06
5.12676962564e-06
4.56063167807e-06
3.99717893864e-06
3.43551259397e-06
2.87460898531e-06
2.31323053532e-06
1.74977692859e-06
1.18205288182e-06
6.06953104437e-07
1.02572365522e-07
0.000183836202946
0.000186312050871
0.000187390575362
0.000187117125474
0.000186018979899
0.000184516326292
0.000182874231178
0.000181233960406
0.000179659104828
0.000178171083209
0.000176770960668
0.000175451297687
0.000174202024392
0.000173013083604
0.000171875446613
0.000170781364289
0.000169724292292
0.000168698702442
0.000167699876232
0.000166723719234
0.000165766608179
0.000164825270622
0.000163896692645
0.000162978048906
0.000162066649724
0.000161159900717
0.000160255271469
0.000159350270667
0.000158442426851
0.000157529268909
0.000156608306662
0.000155677017265
0.000154732829116
0.000153773105205
0.000152795125251
0.000151796066061
0.000150772979448
0.000149722766911
0.000148642150076
0.000147527635655
0.000146375473318
0.000145181604467
0.000143941599416
0.000142650579985
0.000141303124162
0.000139893149451
0.000138413772411
0.000136857144312
0.000135214268184
0.000133474812203
0.000131626950189
0.000129657282568
0.000127550918554
0.000125291824939
0.000122863554331
0.000120250438191
0.000117439258411
0.000114421306995
0.000111194632693
0.000107766167547
0.000104153299465
0.000100384290537
9.64968817839e-05
9.25348241933e-05
8.8543057826e-05
8.45631708237e-05
8.0630722677e-05
7.67748422233e-05
7.30191987112e-05
6.93833133576e-05
6.58836122281e-05
6.25339545621e-05
5.93456566052e-05
5.63271401376e-05
5.34833941873e-05
5.08154955217e-05
4.83204438166e-05
4.5991470694e-05
4.38188031485e-05
4.17907012965e-05
3.98945293949e-05
3.81176632145e-05
3.64481341479e-05
3.48750029127e-05
3.33885125766e-05
3.19800899287e-05
3.06422588128e-05
2.93685130601e-05
2.81531797165e-05
2.69912896547e-05
2.58784634131e-05
2.48108145161e-05
2.37848695961e-05
2.2797503301e-05
2.18458856099e-05
2.09274392414e-05
2.00398051436e-05
1.91808143758e-05
1.83484650316e-05
1.75409031211e-05
1.67564065732e-05
1.59933716901e-05
1.52503015444e-05
1.4525795908e-05
1.38185423964e-05
1.31273085712e-05
1.24509347982e-05
1.1788327689e-05
1.1138453988e-05
1.05003347772e-05
9.87303988902e-06
9.25568241554e-06
8.64741319696e-06
8.0474151528e-06
7.4548972774e-06
6.86908804568e-06
6.28922783804e-06
5.7145597506e-06
5.1443177237e-06
4.57771016093e-06
4.0138958854e-06
3.45194706366e-06
2.89079027252e-06
2.32911233293e-06
1.76521380828e-06
1.19679616606e-06
6.20688068136e-07
1.11467655396e-07
0.000180144144907
0.000182479351279
0.000183715429989
0.000183805993842
0.000183130316763
0.000182023500319
0.000180719852295
0.000179359337386
0.000178015142295
0.000176719859694
0.000175483902403
0.00017430671166
0.000173182985427
0.000172105890372
0.000171068583211
0.000170064837775
0.000169089225677
0.000168137091233
0.000167204444658
0.00016628783427
0.00016538422515
0.000164490894698
0.000163605347345
0.000162725246984
0.00016184836432
0.000160972536123
0.000160095633573
0.000159215538281
0.000158330122671
0.000157437232394
0.000156534668942
0.000155620177879
0.000154691435388
0.000153746034475
0.000152781470196
0.000151795123282
0.000150784241501
0.000149745917896
0.000148677064884
0.000147574382851
0.000146434321452
0.000145253031298
0.000144026302955
0.000142749489433
0.000141417407425
0.000140024212013
0.000138563239559
0.000137026815196
0.000135406026048
0.000133690471234
0.000131868017572
0.000129924617742
0.000127844284721
0.000125609354586
0.000123201190208
0.000120601454152
0.000117793993089
0.000114767244778
0.000111516945894
0.000108048805962
0.000104380664182
0.00010054336459
9.65793341123e-05
9.25382598522e-05
8.84707406744e-05
8.44223444895e-05
8.04304666658e-05
7.65244253296e-05
7.27272749669e-05
6.90577903321e-05
6.55318831415e-05
6.21632364354e-05
5.89632665393e-05
5.59406008698e-05
5.3100300889e-05
5.04431445597e-05
4.79653220564e-05
4.56587709225e-05
4.3512116926e-05
4.1511958521e-05
3.96441603262e-05
3.78949010946e-05
3.62513665383e-05
3.47021017944e-05
3.32371049354e-05
3.18477572731e-05
3.0526670645e-05
2.92675068275e-05
2.8064801259e-05
2.69138066293e-05
2.58103615237e-05
2.4750783728e-05
2.37317852493e-05
2.27504053376e-05
2.18039578802e-05
2.08899900246e-05
2.00062494489e-05
1.91506582504e-05
1.8321291882e-05
1.75163619428e-05
1.67342019158e-05
1.59732551731e-05
1.5232064727e-05
1.45092643393e-05
1.38035706807e-05
1.31137763139e-05
1.2438743307e-05
1.17773973381e-05
1.11287221573e-05
1.04917543053e-05
9.86557797969e-06
9.24931995028e-06
8.64214439875e-06
8.04324753916e-06
7.45185180516e-06
6.86719930601e-06
6.28854406924e-06
5.7151423201e-06
5.14623955591e-06
4.58105240287e-06
4.01874195457e-06
3.4583733508e-06
2.89885360687e-06
2.33883665402e-06
1.77658296126e-06
1.20976509775e-06
6.35224353407e-07
1.22522973806e-07
0.000177090916962
0.000179282628995
0.000180599379327
0.00018094529662
0.0001805933157
0.000179807422833
0.00017878907062
0.000177670224005
0.000176527771948
0.000175401665828
0.000174309594783
0.000173256916148
0.000172242726964
0.000171263321418
0.000170314038603
0.00016939017778
0.000168487398947
0.000167601853066
0.000166730179521
0.000165869445536
0.000165017066539
0.000164170726552
0.000163328306938
0.000162487826234
0.000161647391023
0.000160805156559
0.000159959295419
0.000159107974189
0.00015824933315
0.000157381468499
0.000156502416511
0.000155610141803
0.00015470252503
0.000153777350477
0.000152832292948
0.000151864903335
0.000150872592181
0.000149852610402
0.000148802026103
0.000147717696068
0.000146596229998
0.00014543394489
0.000144226806019
0.000142970349845
0.000141659582794
0.000140288848546
0.00013885165552
0.000137340456768
0.000135746378068
0.000134058899518
0.000132265515221
0.000130351428869
0.000128299391596
0.000126089845149
0.000123701573909
0.000121113052965
0.000118304574591
0.000115261064565
0.000111975338219
0.000108451440462
0.000104707576466
0.000100777708783
9.67102769028e-05
9.25627889311e-05
8.83932708378e-05
8.42522768668e-05
8.01791997846e-05
7.62032562181e-05
7.23465567511e-05
6.86269533293e-05
6.50598458281e-05
6.16588824729e-05
5.84358073916e-05
5.5399709806e-05
5.25559291402e-05
4.9905009917e-05
4.74422037801e-05
4.51578473606e-05
4.30385573343e-05
4.10688549246e-05
3.92327510702e-05
3.75149643297e-05
3.59016588876e-05
3.4380755326e-05
3.29419410027e-05
3.15765099295e-05
3.0277131087e-05
2.90376070437e-05
2.78526548884e-05
2.67177218624e-05
2.56288370802e-05
2.45824955357e-05
2.35755688153e-05
2.26052368881e-05
2.16689360595e-05
2.07643190876e-05
1.9889224363e-05
1.90416517982e-05
1.82197436846e-05
1.74217692303e-05
1.66461118404e-05
1.58912584507e-05