/*--------------------------------*- C++ -*----------------------------------*\
  =========                 |
  \\      /  F ield         | OpenFOAM: The Open Source CFD Toolbox
   \\    /   O peration     | Website:  https://openfoam.org
    \\  /    A nd           | Version:  7
     \\/     M anipulation  |
\*---------------------------------------------------------------------------*/
FoamFile
{
    version     2.0;
    format      ascii;
    class       surfaceScalarField;
    location    "3360";
    object      phi;
}
// * * * * * * * * * * * * * * * * * * * * * * * * * * * * * * * * * * * * * //

dimensions      [0 3 -1 0 0 0 0];

internalField   nonuniform List<scalar> 
16192
(
6.92951248228e-10
2.44548751772e-10
4.93620917808e-10
1.99330328154e-10
3.64888343983e-10
1.28732571339e-10
2.82279320449e-10
8.26090208314e-11
2.27599994209e-10
5.46793232477e-11
1.89911178984e-10
3.76888121325e-11
1.62874426965e-10
2.70367489387e-11
1.42780415622e-10
2.00940083342e-11
1.27397306464e-10
1.53831062362e-11
1.15334333908e-10
1.20629697511e-11
1.05692116973e-10
9.6422142471e-12
9.78676882977e-11
7.82442613481e-12
9.14430937074e-11
6.42459219277e-12
8.61198492616e-11
5.32324222276e-12
8.16791562371e-11
4.44069096716e-12
7.79569848732e-11
3.72216950521e-12
7.48279927913e-11
3.12899040779e-12
7.2194848171e-11
2.63314316526e-12
6.99809537181e-11
2.21389319689e-12
6.81253691974e-11
1.8555834993e-12
6.65791909177e-11
1.54617746671e-12
6.53029200716e-11
1.27627027808e-12
6.42645162076e-11
1.03840350849e-12
6.34379356288e-11
8.2658047386e-13
6.28020186556e-11
6.35917080058e-13
6.23396329632e-11
4.62386050744e-13
6.20370070122e-11
3.02626516485e-13
6.18832075117e-11
1.53800315194e-13
6.18697264478e-11
1.34820787272e-14
6.19901533419e-11
-1.20425633936e-13
6.22399126636e-11
-2.49757868526e-13
6.26160528076e-11
-3.76138447587e-13
6.31170750143e-11
-5.01020321163e-13
6.3742793128e-11
-6.25715981847e-13
6.44942149493e-11
-7.51419496471e-13
6.53734382583e-11
-8.79220725184e-13
6.63835530634e-11
-1.01011201346e-12
6.75285429374e-11
-1.14498679819e-12
6.88131757026e-11
-1.28462945316e-12
7.02428742528e-11
-1.42969491593e-12
7.18235547949e-11
-1.58067663099e-12
7.35614197722e-11
-1.73786069638e-12
7.54626887896e-11
-1.90126441376e-12
7.75332511191e-11
-2.07055730801e-12
7.97782203973e-11
-2.24496389421e-12
8.22013748867e-11
-2.42314865341e-12
8.4804467895e-11
-2.60308679144e-12
8.75864025083e-11
-2.78192793958e-12
9.05422754068e-11
-2.95586586167e-12
9.3662316304e-11
-3.12003344025e-12
9.69307738338e-11
-3.26844977361e-12
1.0032483367e-10
-3.39405174533e-12
1.03813687501e-10
-3.48884555544e-12
1.0735790567e-10
-3.54420969728e-12
1.10909283266e-10
-3.55136911393e-12
1.14411329026e-10
-3.50203728689e-12
1.178005289e-10
-3.38919163997e-12
1.21008446258e-10
-3.20790943087e-12
1.23964608945e-10
-2.95615535133e-12
1.26600001714e-10
-2.63538613876e-12
1.28850843554e-10
-2.25083624701e-12
1.30662229392e-10
-1.81138141438e-12
1.31991183103e-10
-1.32895078275e-12
1.32808743473e-10
-8.17559025674e-13
1.331008716e-10
-2.92128613516e-13
1.32868194043e-10
2.32675261254e-13
1.32124799422e-10
7.43390398698e-13
1.30896433981e-10
1.22835945252e-12
1.29218434095e-10
1.67799214926e-12
1.2713365949e-10
2.08476539999e-12
1.24690572348e-10
2.44307658735e-12
1.21941499207e-10
2.74906158661e-12
1.18941038132e-10
3.00044868603e-12
1.15744553753e-10
3.19647151037e-12
1.12406718125e-10
3.33782243207e-12
1.0898010009e-10
3.42660481935e-12
1.05513848527e-10
3.46623842348e-12
1.0205254851e-10
3.46128718152e-12
9.86353328656e-11
3.41720313819e-12
9.52953143238e-11
3.34000651198e-12
9.20593635386e-11
3.23593919569e-12
8.89482177601e-11
3.11113471566e-12
8.59768665543e-11
2.97134059295e-12
8.31551408712e-11
2.82171556714e-12
8.04884231259e-11
2.66670803044e-12
7.79784043928e-11
2.5100094453e-12
7.56238274675e-11
2.35456796502e-12
7.34211741739e-11
2.20264467904e-12
7.13652706573e-11
2.05589515459e-12
6.94498003863e-11
1.91546218048e-12
6.76677234656e-11
1.78206902101e-12
6.60116093113e-11
1.65610646933e-12
6.44738920485e-11
1.53770972705e-12
6.3047060988e-11
1.426823704e-12
6.17237971887e-11
1.32325657189e-12
6.04970675403e-11
1.22672258469e-12
5.93601852212e-11
1.13687538263e-12
5.83068450595e-11
1.05333338968e-12
5.73311397698e-11
9.75698656439e-13
5.6427562737e-11
9.0357057531e-13
5.55910009162e-11
8.36555521355e-13
5.48167213439e-11
7.74273465432e-13
5.41003531511e-11
7.16362266575e-13
5.34378670868e-11
6.62480348506e-13
5.28255533697e-11
6.12308203889e-13
5.22599988914e-11
5.65549191607e-13
5.17380639134e-11
5.21929912793e-13
5.12568585926e-11
4.81200494538e-13
5.08137189953e-11
4.43135007144e-13
5.04061823478e-11
4.07532304208e-13
5.00319607003e-11
3.74217550093e-13
4.96889120575e-11
3.43044795726e-13
4.93750074208e-11
3.1390104042e-13
4.90882916803e-11
2.86712393415e-13
4.88268353803e-11
2.61453204241e-13
4.85886731043e-11
2.38159424851e-13
4.83717223646e-11
2.16948136978e-13
4.81736737853e-11
1.9804621482e-13
4.79918387291e-11
1.81832937086e-13
4.78229324297e-11
1.68904415083e-13
4.76627576545e-11
1.6017313966e-13
4.75057312781e-11
1.5702498412e-13
4.7344160093e-11
1.61570059828e-13
4.71671214646e-11
1.77037766545e-13
4.69587771573e-11
2.08343721713e-13
4.66962273738e-11
2.6254942989e-13
4.63488445243e-11
3.47382644934e-13
4.45656843839e-13
9.53438221564e-10
2.28610528441e-10
8.59680742939e-10
2.93087801639e-10
7.45085257231e-10
2.43328051474e-10
6.4178950204e-10
1.85904769956e-10
5.56423972364e-10
1.40044846539e-10
4.87793577387e-10
1.06319200681e-10
4.32884110476e-10
8.19462095142e-11
3.88749776784e-10
6.42283358553e-11
3.52982539445e-10
5.11503376018e-11
3.2372982193e-10
4.131568153e-11
2.99594754867e-10
3.37772758307e-11
2.79526582683e-10
2.78925931345e-11
2.62730142052e-10
2.32210279475e-11
2.48597726507e-10
1.9455653236e-11
2.36659610616e-10
1.63788026804e-11
2.26548545919e-10
1.38332304111e-11
2.1797428124e-10
1.17032516849e-11
2.10705161637e-10
9.90225978699e-12
2.04554711271e-10
8.3643409981e-12
1.99371740556e-10
7.03855209172e-12
1.95032965186e-10
5.88495114664e-12
1.91437434368e-10
4.87179986098e-12
1.88502276471e-10
3.97356060661e-12
1.86159415924e-10
3.16944067897e-12
1.84353014056e-10
2.44231903813e-12
1.83037456458e-10
1.77794418952e-12
1.82175756748e-10
1.1643271883e-12
1.81738281479e-10
5.91276982482e-13
1.81701724005e-10
5.00413557481e-14
1.82048273225e-10
-4.66972628317e-13
1.82764933634e-10
-9.66415663227e-13
1.83842964269e-10
-1.45416605427e-12
1.85277409104e-10
-1.93546174523e-12
1.87066695664e-10
-2.41499871625e-12
1.89212280182e-10
-2.89699979771e-12
1.91718320171e-10
-3.38525606081e-12
1.94591354157e-10
-3.88314092371e-12
1.97839968782e-10
-4.3935958647e-12
2.01474430415e-10
-4.91908505075e-12
2.05506257408e-10
-5.46151532285e-12
2.0994770476e-10
-6.02211684517e-12
2.14811131432e-10
-6.6012795981e-12
2.20108216382e-10
-7.19834096308e-12
2.2584898966e-10
-7.81132147778e-12
2.3204064443e-10
-8.43660886254e-12
2.38686102829e-10
-9.06859649654e-12
2.45782318483e-10
-9.69929117487e-12
2.53318320501e-10
-1.03179179392e-11
2.61273033135e-10
-1.09105658045e-11
2.69612950586e-10
-1.14599375278e-11
2.78289800032e-10
-1.19452853001e-11
2.87238391797e-10
-1.23426290789e-11
2.96374918331e-10
-1.26253573115e-11
3.0559601836e-10
-1.27652947028e-11
3.14778944582e-10
-1.27342803029e-11
3.23783151987e-10
-1.25062298337e-11
3.32453535548e-10
-1.20595608548e-11
3.40625391109e-10
-1.13797514493e-11
3.48130949862e-10
-1.04617018114e-11
3.5480707799e-10
-9.31150360895e-12
3.60503476529e-10
-7.94722626788e-12
3.65090535344e-10
-6.39843423804e-12
3.6846595032e-10
-4.70436273383e-12
3.70559359819e-10
-2.9109687162e-12
3.71334576857e-10
-1.06734929702e-12
3.70789414437e-10
7.77830579044e-13
3.68953487677e-10
2.57930662657e-12
3.65884620328e-10
4.29721310232e-12
3.61664503647e-10
5.89809222995e-12
3.56394135483e-10
7.355114524e-12
3.50189366441e-10
8.6478245615e-12
3.4317668506e-10
9.76172042177e-12
3.35489237408e-10
1.06878727558e-11
3.27263027107e-10
1.14226577077e-11
3.18633260463e-10
1.19675648182e-11
3.09730868349e-10
1.23289729166e-11
3.00679307936e-10
1.25177752905e-11
2.91591799217e-10
1.25487730723e-11
2.82569155934e-10
1.24398243957e-11
2.73698333164e-10
1.22108081746e-11
2.65051740396e-10
1.18825117544e-11
2.56687288783e-10
1.1475567042e-11
2.48649068583e-10
1.10095423458e-11
2.40968508409e-10
1.05022581093e-11
2.33665849273e-10
9.9693502397e-12
2.2675177607e-10
9.42406638498e-12
2.20229072723e-10
8.877255601e-12
2.14094201747e-10
8.33750045692e-12
2.08338741404e-10
7.81134071349e-12
2.02950644729e-10
7.30354446253e-12
1.97915306821e-10
6.81739284885e-12
1.93216444753e-10
6.35495476485e-12
1.88836803791e-10
5.91733717157e-12
1.84758710547e-10
5.50490369635e-12
1.80964494747e-10
5.11745935683e-12
1.77436802149e-10
4.75440242818e-12
1.74158818553e-10
4.41484647109e-12
1.71114423385e-10
4.09771633102e-12
1.68288287848e-10
3.80182224657e-12
1.65665930834e-10
3.52591595721e-12
1.63233742644e-10
3.26873240031e-12
1.60978985098e-10
3.02902005625e-12
1.58889774187e-10
2.80556258524e-12
1.56955050427e-10
2.59719390973e-12
1.55164540277e-10
2.40280855756e-12
1.53508711365e-10
2.22136873335e-12
1.51978722968e-10
2.05190937022e-12
1.50566372752e-10
1.89354222132e-12
1.49264039763e-10
1.74545995921e-12
1.48064623284e-10
1.60694120993e-12
1.4696147624e-10
1.47735748397e-12
1.45948331304e-10
1.35618308997e-12
1.45019216856e-10
1.24300931259e-12
1.44168359059e-10
1.13756447976e-12
1.43390065024e-10
1.03974198994e-12
1.42678580597e-10
9.49639059445e-13
1.42027914581e-10
8.67609814143e-13
1.41431619341e-10
7.94337565394e-13
1.4088251636e-10
7.30932481526e-13
1.40372355571e-10
6.79062218639e-13
1.39891403276e-10
6.41122912788e-13
1.39427974036e-10
6.20452168061e-13
1.38967981792e-10
6.21560716108e-13
1.38494744249e-10
6.50274158463e-13
1.37989694241e-10
7.13392950107e-13
1.37435682079e-10
8.16561096472e-13
1.36827866155e-10
9.55198383074e-13
1.08162377697e-12
9.76227620859e-10
1.89882905099e-10
9.62926938877e-10
3.06388476955e-10
9.05876020307e-10
3.00378963174e-10
8.33229958674e-10
2.58550824657e-10
7.59987108908e-10
2.13287689212e-10
6.92567986322e-10
1.7373831618e-10
6.33054149986e-10
1.41460038856e-10
5.81560275141e-10
1.15722203862e-10
5.37411884166e-10
9.52987219106e-11
4.9969409286e-10
7.90334663875e-11
4.67490073176e-10
6.59812892904e-11
4.39972894233e-10
5.54097661229e-11
4.16431091897e-10
4.67628246007e-11
3.96266259108e-10
3.96204806608e-11
3.7898035729e-10
3.36646994476e-11
3.64160586929e-10
2.86529960814e-11
3.51465031006e-10
2.43988032634e-11
3.4061017958e-10
2.07571072629e-11
3.31360528336e-10
1.7613988662e-11
3.23520082733e-10
1.48789945324e-11
3.16925484953e-10
1.24795461482e-11
3.1144047389e-10
1.03568085777e-11
3.06951419274e-10
8.46261326393e-12
3.03363714714e-10
6.75714371506e-12
3.00598854461e-10
5.20717815145e-12
2.98592055447e-10
3.78474249488e-12
2.97290313892e-10
2.46606840515e-12
2.96650810025e-10
1.23078093273e-12
2.96639590834e-10
6.12609842432e-14
2.97230475767e-10
-1.05785671369e-12
2.98404138066e-10
-2.14007677504e-12
3.00147326173e-10
-3.19735257386e-12
3.0245219166e-10
-4.24032531035e-12
3.05315695108e-10
-5.27849983853e-12
3.08739062042e-10
-6.32036406416e-12
3.12727263562e-10
-7.37345448674e-12
3.17288494172e-10
-8.4443680674e-12
3.22433619789e-10
-9.53871754251e-12
3.28175564808e-10
-1.06610257033e-11
3.3452860622e-10
-1.18145518259e-11
3.41507537671e-10
-1.30010428862e-11
3.49126665514e-10
-1.42204014043e-11
3.57398594924e-10
-1.54702637528e-11
3.6633276657e-10
-1.67454857954e-11
3.75933706074e-10
-1.8037540387e-11
3.86198960419e-10
-1.93338420978e-11
3.97116710999e-10
-2.06170323306e-11
4.08663084042e-10
-2.18642807889e-11
4.20799218609e-10
-2.3046689529e-11
4.33468211266e-10
-2.41289186342e-11
4.46592123944e-10
-2.50691858809e-11
4.60069322787e-10
-2.58198152578e-11
4.73772490621e-10
-2.6328512127e-11
4.8754771881e-10
-2.65405095462e-11
5.01215104198e-10
-2.64016523017e-11
5.1457124215e-10
-2.58623544574e-11
5.27393887413e-10
-2.48821932299e-11
5.39448853858e-10
-2.34347056531e-11
5.50498939139e-10
-2.15117759889e-11
5.60314333595e-10
-1.9126888392e-11
5.68683648447e-10
-1.63165334283e-11
5.75424467977e-10
-1.31392483544e-11
5.80392269602e-10
-9.67216171053e-12
5.83486740133e-10
-6.00543952833e-12
5.84654926233e-10
-2.23553890368e-12
5.83891201372e-10
1.54154878281e-12
5.81234531435e-10
5.23596671615e-12
5.76763834895e-10
8.76789692347e-12
5.70592265912e-10
1.20696458127e-11
5.62861097042e-10
1.50862658117e-11
5.53733628252e-10
1.77752739148e-11
5.43389310604e-10
2.01060173534e-11
5.32018107556e-10
2.20590541642e-11
5.19815057621e-10
2.36256856172e-11
5.06975024249e-10
2.48075760663e-11
4.93687699154e-10
2.56162762097e-11
4.80133009943e-10
2.60724431808e-11
4.66477142862e-10
2.62046195899e-11
4.52869391733e-10
2.60475557459e-11
4.39439992076e-10
2.56401889858e-11
4.26299002402e-10
2.50234834487e-11
4.13536190557e-10
2.42383618306e-11
4.01221789218e-10
2.33239274279e-11
3.89407927329e-10
2.23161045499e-11
3.78130519503e-10
2.12467432824e-11
3.6741140642e-10
2.01431653362e-11
3.57260567816e-10
1.90280805827e-11
3.47678272397e-10
1.79197827511e-11
3.38657069705e-10
1.68325306529e-11
3.30183568667e-10
1.57770331177e-11
3.22239976639e-10
1.47609727653e-11
3.14805396877e-10
1.37895226987e-11
3.07856896093e-10
1.28658263392e-11
3.01370364109e-10
1.19914243035e-11
2.95321190724e-10
1.11666215567e-11
2.89684787207e-10
1.03907949903e-11
2.84436977693e-10
9.66264523326e-12
2.7955428457e-10
8.9803989478e-12
2.75014128141e-10
8.34196840199e-12
2.70794958705e-10
7.74507539759e-12
2.66876335459e-10
7.18734592064e-12
2.63238964688e-10
6.66638141565e-12
2.59864706569e-10
6.17981160348e-12
2.5673655853e-10
5.7253331945e-12
2.53838620677e-10
5.30073800385e-12
2.51156047839e-10
4.90393353992e-12
2.48674991004e-10
4.53295854943e-12
2.46382530209e-10
4.18599575291e-12
2.44266599615e-10
3.86138368649e-12
2.42315904863e-10
3.55762949876e-12
2.40519831799e-10
3.27342449049e-12
2.38868344944e-10
3.00766429302e-12
2.37351873248e-10
2.75947576394e-12
2.35961179934e-10
2.52825294884e-12
2.34687212644e-10
2.31370483735e-12
2.33520929693e-10
2.11591795579e-12
2.32453098736e-10
1.93543711093e-12
2.31474065766e-10
1.77336725234e-12
2.30573497387e-10
1.63149796688e-12
2.29740109618e-10
1.51244747395e-12
2.28961418859e-10
1.41981156084e-12
2.28223594326e-10
1.35827498926e-12
2.2751157697e-10
1.33357677882e-12
2.26809790099e-10
1.3520601182e-12
2.26104042939e-10
1.41913950568e-12
2.25385650526e-10
1.5349531611e-12
2.24658059362e-10
1.68278937317e-12
1.80139099633e-12
9.71720943391e-10
1.55661958766e-10
9.86469358691e-10
2.91640053908e-10
9.67667917383e-10
3.19180396884e-10
9.2693331739e-10
2.99285416768e-10
8.76127417262e-10
2.64093581199e-10
8.22783681586e-10
2.27082043683e-10
7.71064362431e-10
1.93179349915e-10
7.23014101094e-10
1.63772457234e-10
6.79456309305e-10
1.38856505892e-10
6.40549463939e-10
1.1794030413e-10
6.06112764176e-10
1.00417981638e-10
5.75809931656e-10
8.5712591461e-11
5.49249592538e-10
7.33231567886e-11
5.26037893033e-10
6.28321735159e-11
5.05804325089e-10
5.38982610362e-11
4.88212847642e-10
4.62444674926e-11
4.72965163923e-10
3.96464812753e-11
4.59799999004e-10
3.39222668259e-11
4.48490499393e-10
2.89234832715e-11
4.3884090237e-10
2.45285869253e-11
4.30683075637e-10
2.0637368621e-11
4.23873224676e-10
1.71666556603e-11
4.18288898798e-10
1.40469356387e-11
4.13826338575e-10
1.12197008165e-11
4.10398161382e-10
8.63535259303e-12
4.07931360371e-10
6.25154112873e-12
4.06365582751e-10
4.03184400365e-12
4.05651651325e-10
1.94471069629e-12
4.05750293537e-10
-3.73825538186e-14
4.06631044514e-10
-1.93860867761e-12
4.08271291871e-10
-3.7803248032e-12
4.10655436687e-10
-5.58149773861e-12
4.13774141457e-10
-7.35903012818e-12
4.1762363896e-10
-9.12799707377e-12
4.22205075422e-10
-1.09017999586e-11
4.27523861439e-10
-1.26922396101e-11
4.33589001905e-10
-1.45095073176e-11
4.40412374857e-10
-1.63620889172e-11
4.48007925612e-10
-1.82565745097e-11
4.56390740326e-10
-2.01973641648e-11
4.65575959181e-10
-2.21862589186e-11
4.7557748777e-10
-2.42219266553e-11
4.86406463237e-10
-2.62992353374e-11
4.9806943416e-10
-2.84084522215e-11
5.10566217983e-10
-3.05343190717e-11
5.23887412864e-10
-3.26550311357e-11
5.38011560922e-10
-3.47411738266e-11
5.52901993593e-10
-3.67547061365e-11
5.6850343592e-10
-3.86481237809e-11
5.84738510366e-10
-4.03639842394e-11
6.01504357502e-10
-4.1835023453e-11
6.18669679516e-10
-4.29851270069e-11
6.36072598434e-10
-4.37314201704e-11
6.53519790682e-10
-4.39876903852e-11
6.70787385695e-10
-4.36692355328e-11
6.87624076927e-10
-4.26990336993e-11
7.03756762296e-10
-4.101486667e-11
7.18898801472e-10
-3.85767332483e-11
7.32760652884e-10
-3.53736165663e-11
7.45062270527e-10
-3.14284963519e-11
7.55546255892e-10
-2.68005107394e-11
7.63990469458e-10
-2.15834559241e-11
7.70218714802e-10
-1.59004035417e-11
7.74108310886e-10
-9.89503488076e-12
7.75593864977e-10
-3.72109526215e-12
7.74667229107e-10
2.46817933789e-12
7.71374243304e-10
8.52894420935e-12
7.65809239023e-10
1.43328901152e-11
7.58108299471e-10
1.97705717774e-11
7.48442063398e-10
2.47524862013e-11
7.37008548554e-10
2.92087713945e-11
7.24026187638e-10
3.30883597016e-11
7.09727088211e-10
3.6358134255e-11
6.94350469718e-10
3.90022844487e-11
6.78136270564e-10
4.1021755587e-11
6.6131901837e-10
4.24335091291e-11
6.44122162484e-10
4.32692803654e-11
6.26753136394e-10
4.35736277406e-11
6.09399415682e-10
4.34012593623e-11
5.92225766623e-10
4.28138218606e-11
5.75372760753e-10
4.18764740263e-11
5.58956501322e-10
4.06546068495e-11
5.43069397503e-10
3.92110176388e-11
5.27781754601e-10
3.7603734596e-11
5.13143923526e-10
3.58845621527e-11
4.9918876635e-10
3.40983108931e-11
4.85934230504e-10
3.22826052954e-11
4.73385872494e-10
3.04681300521e-11
4.61539219665e-10
2.86791731131e-11
4.50381902276e-10
2.69343404329e-11
4.39895522148e-10
2.52473430517e-11
4.30057250486e-10
2.36277847281e-11
4.20841164415e-10
2.20819029473e-11
4.1221934319e-10
2.06132362325e-11
4.0416275018e-10
1.92232054186e-11
3.96641929322e-10
1.79116068594e-11
3.89627543852e-10
1.66770218724e-11
3.83090783704e-10
1.55171504431e-11
3.7700366488e-10
1.44290787588e-11
3.71339241442e-10
1.34094905812e-11
3.66071747382e-10
1.24548319471e-11
3.61176683099e-10
1.15614379154e-11
3.56630858204e-10
1.07256289744e-11
3.52412400415e-10
9.94378374293e-12
3.48500737916e-10
9.21239355521e-12
3.44876561096e-10
8.52810372367e-12
3.41521767824e-10
7.88774550221e-12
3.38419395324e-10
7.28836226495e-12
3.35553540407e-10
6.7272329495e-12
3.32909269008e-10
6.20189558428e-12
3.30472515e-10
5.71017352581e-12
3.28229967639e-10
5.25020702419e-12
3.26168946383e-10
4.82049272936e-12
3.2427726155e-10
4.41993382741e-12
3.22543059327e-10
4.04790343773e-12
3.20954650365e-10
3.70432362073e-12
3.19500323094e-10
3.38976140457e-12
3.18168146654e-10
3.10554102647e-12
3.16945775527e-10
2.85386673934e-12
3.15820280435e-10
2.63794051835e-12
3.14778051639e-10
2.46203862185e-12
3.13804855656e-10
2.33146955036e-12
3.12886180539e-10
2.25225078492e-12
3.12008076602e-10
2.23016322996e-12
3.11158756155e-10
2.26845943546e-12
3.10331009477e-10
2.36269959023e-12
3.09523972602e-10
2.48982620372e-12
2.58912718093e-12
9.63869511194e-10
1.29292443389e-10
9.8740547403e-10
2.68104081873e-10
9.89137644287e-10
3.17448217522e-10
9.71157434842e-10
3.17265617205e-10
9.404172399e-10
2.94833767005e-10
9.02970055864e-10
2.64529218583e-10
8.63017224376e-10
2.33132172346e-10
8.23211867881e-10
2.03577804799e-10
7.85115100412e-10
1.76953264577e-10
7.49569469337e-10
1.53485926596e-10
7.16963527457e-10
1.33023915099e-10
6.8740868875e-10
1.15267421971e-10
6.60853851451e-10
9.98779861255e-11
6.37158149783e-10
8.65278674871e-11
6.16136293823e-10
7.49201095771e-11
5.97586260779e-10
6.47944934213e-11
5.81305759628e-10
5.5926975624e-11
5.67101629661e-10
4.81263903263e-11
5.54794841684e-10
4.12302651188e-11
5.44222801905e-10
3.51006209314e-11
5.35240034535e-10
2.9620130571e-11
5.27717920302e-10
2.468876484e-11
5.215439133e-10
2.02209379446e-11
5.16620497141e-10
1.6143112647e-11
5.12864038412e-10
1.23918073456e-11
5.10203630795e-10
8.91194512617e-12
5.08579981777e-10
5.65548973956e-12
5.0794436831e-10
2.58032122093e-12
5.08257671037e-10
-3.50687907855e-13
5.0948948546e-10
-3.17042540978e-12
5.11617302462e-10
-5.90814382256e-12
5.14625749785e-10
-8.58994678189e-12
5.18505875963e-10
-1.12391577535e-11
5.23254459176e-10
-1.38765814485e-11
5.28873320257e-10
-1.65206619329e-11
5.3536861692e-10
-1.91875368746e-11
5.42750092872e-10
-2.18909835832e-11
5.51030252876e-10
-2.46422489097e-11
5.60223430929e-10
-2.7449752215e-11
5.70344715817e-10
-3.03186483117e-11
5.81408694552e-10
-3.32502364929e-11
5.93427972338e-10
-3.624120279e-11
6.06411426228e-10
-3.92826870481e-11
6.20362152072e-10
-4.23591752781e-11
6.35275069886e-10
-4.54472334499e-11
6.51134165958e-10
-4.8514123048e-11
6.67909370998e-10
-5.15163739529e-11
6.855531079e-10
-5.43984373103e-11
7.0399659073e-10
-5.70916000608e-11
7.23146023009e-10
-5.95134091113e-11
7.42878925698e-10
-6.15679179041e-11
7.63040921963e-10
-6.31471142024e-11
7.83443403692e-10
-6.41338920709e-11
8.03862588136e-10
-6.44068642965e-11
8.24040512757e-10
-6.38471490644e-11
8.43688484799e-10
-6.23469942439e-11
8.62493368561e-10
-5.98197387923e-11
8.80126845391e-10
-5.62101985822e-11
8.96257420361e-10
-5.15041806005e-11
9.10564508982e-10
-4.57355750198e-11
9.22753476775e-10
-3.89894700785e-11
9.32570130894e-10
-3.14001035484e-11
9.3981301387e-10
-2.31432824494e-11
9.44342061914e-10
-1.44240815981e-11
9.46082792326e-10
-5.46182733292e-12
9.45026026218e-10
3.52494075935e-12
9.41223930192e-10
1.23310325708e-11
9.34783594476e-10
2.07732154187e-11
9.25859348839e-10
2.86948045423e-11
9.14644709485e-10
3.59671106395e-11
9.01364445546e-10
4.24890187959e-11
8.86266913802e-10
4.81858737742e-11
8.69616613506e-10
5.30084161827e-11
8.51686867602e-10
5.69320117349e-11
8.32752606281e-10
5.99559983925e-11
8.13083364543e-10
6.21027327804e-11
7.92936743781e-10
6.3415883681e-11
7.72552673565e-10
6.39576813281e-11
7.52148805601e-10
6.38051115914e-11
7.31917279651e-10
6.30453330249e-11
7.12022951009e-10
6.17707888069e-11
6.92603010441e-10
6.00745344574e-11
6.73767798668e-10
5.80462172747e-11
6.55602542367e-10
5.57689795172e-11
6.3816971647e-10
5.33173773271e-11
6.21511758361e-10
5.07562588577e-11
6.05653904655e-10
4.81404493356e-11
5.90606976991e-10
4.5515048457e-11
5.76369997043e-10
4.29161441238e-11
5.62932558086e-10
4.03717707226e-11
5.50276916946e-10
3.7902975731e-11
5.3837979749e-10
3.55248959007e-11
5.27213914675e-10
3.32477776187e-11
5.16749239832e-10
3.1077903064e-11
5.06954033564e-10
2.90184037909e-11
4.97795675327e-10
2.70699573255e-11
4.89241318329e-10
2.52313712234e-11
4.81258397038e-10
2.35000642299e-11
4.73815011796e-10
2.18724566499e-11
4.66880212397e-10
2.03442828052e-11
4.60424199278e-10
1.89108380809e-11
4.544184583e-10
1.75671721211e-11
4.48835842253e-10
1.63082384755e-11
4.43650610004e-10
1.51290096925e-11
4.3883843193e-10
1.40245655886e-11
4.34376368593e-10
1.2990161294e-11
4.30242827895e-10
1.20212807158e-11
4.26417504708e-10
1.11136802588e-11
4.2288130572e-10
1.0263427041e-11
4.19616261348e-10
9.46693536053e-12
4.16605425717e-10
8.72100486436e-12
4.13832765148e-10
8.0228636004e-12
4.11283035218e-10
7.37021896709e-12
4.08941646376e-10
6.76131927151e-12
4.06794518545e-10
6.19502815974e-12
4.0482792618e-10
5.67091315805e-12
4.03028337389e-10
5.18934764324e-12
4.0138225441e-10
4.75162171881e-12
3.99876068766e-10
4.36005035912e-12
3.98495953718e-10
4.0180537978e-12
3.97227830393e-10
3.73016043831e-12
3.96057462322e-10
3.50183637243e-12
3.94970753206e-10
3.33895892176e-12
3.93954327913e-10
3.24658779645e-12
3.92996401318e-10
3.22638554916e-12
3.9208755104e-10
3.27154965683e-12
3.91219600486e-10
3.35777675133e-12
3.43057154217e-12
9.57447332865e-10
1.09345106137e-10
9.82176274796e-10
2.43375130291e-10
9.94250321599e-10
3.0537416139e-10
9.90942367243e-10
3.20573561977e-10
9.75412877662e-10
3.10363246744e-10
9.51775839539e-10
2.88166246827e-10
9.23493169609e-10
2.61414832473e-10
8.93106274476e-10
2.33964690251e-10
8.62359238502e-10
2.07700291015e-10
8.3239186039e-10
1.83453295338e-10
8.03911747711e-10
1.61504018592e-10
7.77327416466e-10
1.41851744236e-10
7.52845442819e-10
1.24359951018e-10
7.30539319119e-10
1.0883398268e-10
7.10397386773e-10
9.50620336817e-11
6.92355764668e-10
8.28361075707e-11
6.76320703038e-10
7.19620295978e-11
6.62183567813e-10
6.22635182111e-11
6.49830730918e-10
5.35830949977e-11
6.39149963642e-10
4.57813815292e-11
6.30034445438e-10
3.87356424359e-11
6.22385158855e-10
3.2338045432e-11
6.16112202063e-10
2.64938890896e-11
6.11135384164e-10
2.11199252471e-11
6.07384352808e-10
1.61428337416e-11
6.04798423706e-10
1.14978696058e-11
6.0332622591e-10
7.12768323696e-12
6.02925238282e-10
2.98130487044e-12
6.03561265497e-10
-9.8671880073e-13
6.05207880489e-10
-4.81704378165e-12
6.07845851729e-10
-8.54611816664e-12
6.11462562931e-10
-1.22066608125e-11
6.16051419944e-10
-1.58280173384e-11
6.21611237764e-10
-1.94364015785e-11
6.28145594907e-10
-2.30550211331e-11
6.35662138086e-10
-2.67040818405e-11
6.44171815545e-10
-3.04006625558e-11
6.53688013569e-10
-3.41584481391e-11
6.64225566253e-10
-3.79873057747e-11
6.75799605007e-10
-4.18926875558e-11
6.8842421031e-10
-4.58748418587e-11
7.02110825786e-10
-4.99278178279e-11
7.1686639297e-10
-5.40382532351e-11
7.32691166684e-10
-5.818394735e-11
7.49576175782e-10
-6.23322401973e-11
7.67500305679e-10
-6.64382498004e-11
7.8642699878e-10
-7.04430630594e-11
8.06300601494e-10
-7.42720351121e-11
8.27042434135e-10
-7.78334268384e-11
8.48546727452e-10
-8.10176955732e-11
8.70676656923e-10
-8.36978395304e-11
8.93260812256e-10
-8.57312607004e-11
9.16090553822e-10
-8.69636238631e-11
9.38918812287e-10
-8.72351121101e-11
9.61460951045e-10
-8.63892764223e-11
9.83398297808e-10
-8.42843290251e-11
1.00438482474e-09
-8.08062534239e-11
1.02405719461e-09
-7.58825561582e-11
1.04204799111e-09
-6.94949652438e-11
1.05800144256e-09
-6.16890155629e-11
1.07159038988e-09
-5.25784080029e-11
1.08253275829e-09
-4.23424646213e-11
1.09060554913e-09
-3.1216068527e-11
1.09565457724e-09
-1.94731078985e-11
1.09759892132e-09
-7.40617279237e-12
1.09643014161e-09
4.6937158378e-12
1.09220732166e-09
1.65538447658e-11
1.08504950252e-09
2.79310239155e-11
1.07512698249e-09
3.86173114006e-11
1.06265249039e-09
4.84415875007e-11
1.04787269827e-09
5.72687940755e-11
1.03106012566e-09
6.4998428468e-11
1.01250527671e-09
7.15632466074e-11
9.92508830282e-10
7.69284395004e-11
9.71373817216e-10
8.10909930249e-11
9.49397907619e-10
8.40786244933e-11
9.26866117303e-10
8.59476568827e-11
9.04044356569e-10
8.67794258791e-11
8.81174238897e-10
8.6675214082e-11
8.58469446022e-10
8.57501117574e-11
8.36113754414e-10
8.41264672816e-11
8.14260631697e-10
8.19276450104e-11
7.93034160264e-10
7.92726774288e-11
7.72530964334e-10
7.62721649735e-11
7.52822801494e-10
7.30255303921e-11
7.33959513006e-10
6.96195381805e-11
7.15972085289e-10
6.61278683895e-11
6.98875640742e-10
6.26114847621e-11
6.82672236432e-10
5.91195405218e-11
6.67353399575e-10
5.56905999362e-11
6.52902366478e-10
5.2354001387e-11
6.39296018754e-10
4.91312363492e-11
6.2650652802e-10
4.60372612047e-11
6.14502731116e-10
4.30816929334e-11
6.0325126317e-10
4.02698648e-11
5.92717477996e-10
3.7603735666e-11
5.8286618483e-10
3.50826576578e-11
5.73662228885e-10
3.2704013564e-11
5.65070940534e-10
3.04637385204e-11
5.57058475302e-10
2.83567417079e-11
5.49592063791e-10
2.63772434293e-11
5.42640187998e-10
2.45190419407e-11
5.36172697801e-10
2.27757229e-11
5.30160879149e-10
2.11408227943e-11
5.24577483294e-10
1.96079561263e-11
5.19396724716e-10
1.81709148022e-11
5.14594253712e-10
1.68237469045e-11
5.10147108357e-10
1.55608210628e-11
5.0603364935e-10
1.4376881765e-11
5.02233480367e-10
1.32671003325e-11
4.98727355766e-10
1.22271257255e-11
4.95497076967e-10
1.12531389306e-11
4.9252537851e-10
1.03419142227e-11
4.89795804788e-10
9.49089005591e-12
4.87292578809e-10
8.69825145546e-12
4.85000465244e-10
7.96302428839e-12
4.82904631578e-10
7.285179113e-12
4.80990513767e-10
6.66573756352e-12
4.79243696528e-10
6.10686585333e-12
4.77649823514e-10
5.61192528046e-12
4.76194558767e-10
5.18542386533e-12
4.74863625917e-10
4.83276811844e-12
4.73642948642e-10
4.55963532013e-12
4.72518882591e-10
4.3706532183e-12
4.71478400535e-10
4.26686724305e-12
4.70508698429e-10
4.24125165735e-12
4.69594791134e-10
4.27168411863e-12
4.31257826568e-12
9.52803516725e-10
9.40415842165e-11
9.76034358065e-10
2.20144278446e-10
9.92871860344e-10
2.88536648788e-10
9.98626706115e-10
3.14818706032e-10
9.93944879922e-10
3.15045062651e-10
9.81248401489e-10
3.00862714981e-10
9.63088201998e-10
2.79575021775e-10
9.41602567447e-10
2.55450314742e-10
9.1842581763e-10
2.30877030919e-10
8.9474561132e-10
2.071334919e-10
8.71394012946e-10
1.848556074e-10
8.489337536e-10
1.64311994218e-10
8.27729328187e-10
1.45564367287e-10
8.08002288253e-10
1.2856101371e-10
7.8987299572e-10
1.13191317571e-10
7.73391609412e-10
9.93174855103e-11
7.58560807606e-10
8.67928233286e-11
7.45352290793e-10
7.54720272555e-11
7.33718659614e-10
6.52167187251e-11
7.23601882648e-10
5.58981513695e-11
7.14939265775e-10
4.73982525172e-11
7.07667601032e-10
3.96097037196e-11
7.01725995553e-10
3.24354884514e-11
6.97057748279e-10
2.57881667415e-11
6.93611543143e-10
1.95890334305e-11
6.91342154147e-10
1.37672534811e-11
6.9021080342e-10
8.25902916117e-12
6.90185273295e-10
3.00683050047e-12
6.91239843808e-10
-2.04129351112e-12
6.93355100598e-10
-6.93230448712e-12
6.9651765251e-10
-1.17086737208e-11
7.00719776201e-10
-1.64087878869e-11
7.05958994982e-10
-2.10672392493e-11
7.12237594022e-10
-2.57150035024e-11
7.19562066926e-10
-3.03794966717e-11
7.27942482708e-10
-3.50845000032e-11
7.37391756837e-10
-3.98499387931e-11
7.4792480504e-10
-4.46914981543e-11
7.59557553764e-10
-4.96200559762e-11
7.72305776653e-10
-5.46409115417e-11
7.8618372215e-10
-5.9752788011e-11
8.01202493798e-10
-6.49465896201e-11
8.17368142395e-10
-7.02039013868e-11
8.34679428939e-10
-7.54952327755e-11
8.53125220387e-10
-8.07780297652e-11
8.72681488963e-10
-8.59945156502e-11
8.93307902581e-10
-9.10694730254e-11
9.14944022985e-10