/*--------------------------------*- C++ -*----------------------------------*\
  =========                 |
  \\      /  F ield         | OpenFOAM: The Open Source CFD Toolbox
   \\    /   O peration     | Website:  https://openfoam.org
    \\  /    A nd           | Version:  7
     \\/     M anipulation  |
\*---------------------------------------------------------------------------*/
FoamFile
{
    version     2.0;
    format      ascii;
    class       volVectorField;
    location    "3360";
    object      U;
}
// * * * * * * * * * * * * * * * * * * * * * * * * * * * * * * * * * * * * * //

dimensions      [0 1 -1 0 0 0 0];

internalField   nonuniform List<vector> 
8192
(
(0.00104348879887 0.000156511201134 0)
(0.000759406186263 0.000127571410018 0)
(0.000549445927547 8.23888456572e-05 0)
(0.000414187305237 5.28697733321e-05 0)
(0.000326322761381 3.49947668785e-05 0)
(0.000267207150844 2.41208397648e-05 0)
(0.000225782787807 1.73035193208e-05 0)
(0.000195619099255 1.28601653339e-05 0)
(0.000172913742135 9.84518799114e-06 0)
(0.000155348249838 7.72030064068e-06 0)
(0.000141456928564 6.17101711814e-06 0)
(0.000130278275373 5.00763272628e-06 0)
(0.000121158900483 4.11173900337e-06 0)
(0.0001136402835 3.40687502256e-06 0)
(0.000107391363519 2.84204221898e-06 0)
(0.000102167130311 2.38218848334e-06 0)
(9.77823857053e-05 2.00255386099e-06 0)
(9.40946182159e-05 1.68521162576e-06 0)
(9.0992513209e-05 1.41689164601e-06 0)
(8.83880466659e-05 1.18757343955e-06 0)
(8.62109184736e-05 9.89553578695e-07 0)
(8.44045510331e-05 8.1681297797e-07 0)
(8.29231592187e-05 6.64578245435e-07 0)
(8.17295691753e-05 5.2901150327e-07 0)
(8.0793570742e-05 4.06986931237e-07 0)
(8.0090657036e-05 2.95927072476e-07 0)
(7.96010495843e-05 1.9368097055e-07 0)
(7.93089372953e-05 9.84322017244e-08 0)
(7.92018777341e-05 8.62853038544e-09 0)
(7.92703230654e-05 -7.70724057191e-08 0)
(7.95072422435e-05 -1.59845035856e-07 0)
(7.99078179015e-05 -2.40728606456e-07 0)
(8.0469201806e-05 -3.20653005545e-07 0)
(8.11903156111e-05 -4.00458228382e-07 0)
(8.20716851695e-05 -4.80908477741e-07 0)
(8.31152980529e-05 -5.62701264117e-07 0)
(8.43244744459e-05 -6.46471688617e-07 0)
(8.57037414405e-05 -7.32791550843e-07 0)
(8.72586999296e-05 -8.22162850022e-07 0)
(8.89958719715e-05 -9.15004746195e-07 0)
(9.09225145905e-05 -1.01163304383e-06 0)
(9.30463837229e-05 -1.11223084569e-06 0)
(9.53754294796e-05 -1.21680922481e-06 0)
(9.79174015416e-05 -1.32515667713e-06 0)
(0.00010067934177 -1.43677689229e-06 0)
(0.000103666940982 -1.55081513818e-06 0)
(0.00010688373938 -1.66597554652e-06 0)
(0.000110330157058 -1.78043388133e-06 0)
(0.000114002353866 -1.89175415147e-06 0)
(0.000117890938695 -1.99682140176e-06 0)
(0.000121979577688 -2.09180785511e-06 0)
(0.000126243588802 -2.17219311701e-06 0)
(0.000130648653549 -2.23286115548e-06 0)
(0.000135149819629 -2.26829420626e-06 0)
(0.000139691000919 -2.27287623292e-06 0)
(0.000144205191867 -2.24130386361e-06 0)
(0.000148615589072 -2.16908264958e-06 0)
(0.000152837744101 -2.05306203576e-06 0)
(0.00015678275533 -1.89193942485e-06 0)
(0.000160361350822 -1.68664712881e-06 0)
(0.000163488540972 -1.44053519809e-06 0)
(0.000166088366686 -1.15928410521e-06 0)
(0.000168098183997 -8.50528500962e-07 0)
(0.000169471953009 -5.23237776431e-07 0)
(0.000170182153646 -1.8696231265e-07 0)
(0.000170220202011 1.48912167202e-07 0)
(0.000169595515817 4.75769855167e-07 0)
(0.000168333589377 7.8615004961e-07 0)
(0.000166473515568 1.07391497553e-06 0)
(0.000164065339894 1.33424985599e-06 0)
(0.000161167508376 1.56356901591e-06 0)
(0.000157844525795 1.75939941543e-06 0)
(0.000154164823897 1.92028715906e-06 0)
(0.000150198778806 2.04574176663e-06 0)
(0.000146016814002 2.13620635653e-06 0)
(0.000141687563658 2.19302708438e-06 0)
(0.000137276127115 2.21839259102e-06 0)
(0.000132842494104 2.21522379617e-06 0)
(0.000128440244081 2.18701000844e-06 0)
(0.000124115614201 2.13760416767e-06 0)
(0.000119906993832 2.07100108524e-06 0)
(0.000115844852031 1.99112621802e-06 0)
(0.000111952053961 1.90165797949e-06 0)
(0.000108244484752 1.80589796297e-06 0)
(0.000104731880958 1.70669313948e-06 0)
(0.000101418769612 1.60640604499e-06 0)
(9.83054283906e-05 1.50692349761e-06 0)
(9.53888010505e-05 1.40969259459e-06 0)
(9.2663324692e-05 1.31577289894e-06 0)
(9.01216454679e-05 1.22589579551e-06 0)
(8.77552152652e-05 1.14052417345e-06 0)
(8.55547729772e-05 1.05990814037e-06 0)
(8.35107208703e-05 9.84134225315e-07 0)
(8.16134099434e-05 9.13167170557e-07 0)
(7.98533492331e-05 8.46884206007e-07 0)
(7.82213534265e-05 7.85102454199e-07 0)
(7.67086417674e-05 7.27600244883e-07 0)
(7.53068993797e-05 6.74133369393e-07 0)
(7.40083102908e-05 6.24447140121e-07 0)
(7.28055696043e-05 5.78285168198e-07 0)
(7.1691880738e-05 5.35395533667e-07 0)
(7.06609422465e-05 4.95535017876e-07 0)
(6.97069276768e-05 4.58471850608e-07 0)
(6.88244609523e-05 4.23987423044e-07 0)
(6.80085890922e-05 3.91877250489e-07 0)
(6.72547534471e-05 3.61951482628e-07 0)
(6.6558760195e-05 3.34035144188e-07 0)
(6.59167504038e-05 3.07968316505e-07 0)
(6.53251696562e-05 2.83606404572e-07 0)
(6.47807368596e-05 2.60820674693e-07 0)
(6.42804115508e-05 2.39499232059e-07 0)
(6.3821358565e-05 2.19548669265e-07 0)
(6.34009084661e-05 2.00896665869e-07 0)
(6.30165114247e-05 1.83495931786e-07 0)
(6.26656813188e-05 1.67330050714e-07 0)
(6.23459254301e-05 1.52422031904e-07 0)
(6.20546531e-05 1.38846807666e-07 0)
(6.17890535359e-05 1.26749577485e-07 0)
(6.15459280092e-05 1.16373079735e-07 0)
(6.13214535416e-05 1.08098825653e-07 0)
(6.11108416539e-05 1.02510809382e-07 0)
(6.09078329169e-05 1.00495989837e-07 0)
(6.07039304775e-05 1.0340483829e-07 0)
(6.04872201968e-05 1.13304170589e-07 0)
(6.0240575118e-05 1.33339981896e-07 0)
(5.99392028999e-05 1.68031635129e-07 0)
(5.95488460148e-05 2.22324892758e-07 0)
(5.904130055e-05 2.85220380057e-07 0)
(0.0012102004618 0.000302821939336 0)
(0.00116039613728 0.000315147603068 0)
(0.00102705024011 0.000238118798601 0)
(0.000887599845934 0.000171848826104 0)
(0.000766856623619 0.000124623468663 0)
(0.000668299231841 9.2165128201e-05 0)
(0.000589233720232 6.97490934099e-05 0)
(0.000525845687846 5.39663002813e-05 0)
(0.000474708682386 4.25814040563e-05 0)
(0.00043309591128 3.41623368199e-05 0)
(0.00039892772915 2.77884736498e-05 0)
(0.000370637656032 2.28588923323e-05 0)
(0.00034704430383 1.89731968898e-05 0)
(0.000327249835878 1.58584930936e-05 0)
(0.000310564695759 1.33244759345e-05 0)
(0.000296453220182 1.12354559464e-05 0)
(0.000284494609382 9.49263493934e-06 0)
(0.000274354843442 8.02265788944e-06 0)
(0.000265766318661 6.77006988479e-06 0)
(0.00025851292917 5.69224677825e-06 0)
(0.000252419011675 4.75592231254e-06 0)
(0.000247341055714 3.934764889e-06 0)
(0.000243161414936 3.20765703366e-06 0)
(0.000239783483133 2.55745353781e-06 0)
(0.000237127955187 1.97007111564e-06 0)
(0.000235129901129 1.43381135377e-06 0)
(0.000233736456452 9.38850371063e-07 0)
(0.000232904984465 4.76849470513e-07 0)
(0.00023260160351 4.06549980642e-08 0)
(0.000232799998227 -3.75934887842e-07 0)
(0.00023348045239 -7.78351060322e-07 0)
(0.000234629054658 -1.17139488119e-06 0)
(0.000236237038959 -1.55934852249e-06 0)
(0.000238300227051 -1.94605740678e-06 0)
(0.000240818544541 -2.33498834828e-06 0)
(0.000243795584226 -2.72926514303e-06 0)
(0.00024723819157 -3.13168187979e-06 0)
(0.000251156046681 -3.54469290425e-06 0)
(0.000255561215486 -3.9703772825e-06 0)
(0.000260467640207 -4.41037455282e-06 0)
(0.000265890535788 -4.86578782474e-06 0)
(0.000271845655163 -5.33704978847e-06 0)
(0.0002783483826 -5.82374744118e-06 0)
(0.000285412611866 -6.32440242291e-06 0)
(0.000293049365817 -6.83620656431e-06 0)
(0.000301265118245 -7.35471689597e-06 0)
(0.000310059789639 -7.87352189843e-06 0)
(0.000319424408949 -8.3839013624e-06 0)
(0.000329338466327 -8.87451626632e-06 0)
(0.000339767029582 -9.33118141956e-06 0)
(0.000350657760396 -9.73679044716e-06 0)
(0.000361938042771 -1.00714757275e-05 0)
(0.000373512518482 -1.03130898349e-05 0)
(0.000385261399483 -1.0438082816e-05 0)
(0.000397039976283 -1.04228156267e-05 0)
(0.000408679741804 -1.02452909572e-05 0)
(0.000419991480022 -9.88720159662e-06 0)
(0.000430770513061 -9.33610296332e-06 0)
(0.000440804058222 -8.58742858414e-06 0)
(0.000449880337826 -7.64600943853e-06 0)
(0.000457798754892 -6.52676000953e-06 0)
(0.000464380167599 -5.25428201755e-06 0)
(0.000469476150825 -3.86132065061e-06 0)
(0.000472976198489 -2.3862577548e-06 0)
(0.000474812119473 -8.70065862743e-07 0)
(0.000474959354428 6.46723737791e-07 0)
(0.000473435457353 2.12652609617e-06 0)
(0.000470296389123 3.53636643509e-06 0)
(0.000465631439344 4.8486940027e-06 0)
(0.000459557529043 6.04152315135e-06 0)
(0.000452213441231 7.09817673527e-06 0)
(0.000443754272961 8.00690048536e-06 0)
(0.000434346190379 8.76052572277e-06 0)
(0.000424161449289 9.35624269955e-06 0)
(0.000413373624045 9.79544784016e-06 0)
(0.00040215304244 1.0083569751e-05 0)
(0.000390662512823 1.0229768777e-05 0)
(0.000379053508578 1.02464385624e-05 0)
(0.000367463011296 1.01484976217e-05 0)
(0.000356011193022 9.95252139942e-06 0)
(0.000344800047078 9.67580860803e-06 0)
(0.000333912978675 9.33548912487e-06 0)
(0.000323415268715 8.94776508077e-06 0)
(0.000313355249275 8.52734315289e-06 0)
(0.000303765988916 8.08707729289e-06 0)
(0.00029466728022 7.63780853138e-06 0)
(0.000286067743227 7.18836708225e-06 0)
(0.00027796689566 6.74569288702e-06 0)
(0.000270357083617 6.31503095557e-06 0)
(0.000263225207125 5.90016425153e-06 0)
(0.000256554208992 5.50365559671e-06 0)
(0.000250324321007 5.12707918988e-06 0)
(0.000244514079068 4.77123001512e-06 0)
(0.000239101129176 4.43630553622e-06 0)
(0.000234062851388 4.12205819438e-06 0)
(0.000229376830013 3.82792000823e-06 0)
(0.000225021197249 3.55310198638e-06 0)
(0.00022097487484 3.29667182124e-06 0)
(0.000217217735189 3.05761337792e-06 0)
(0.000213730699956 2.83487138081e-06 0)
(0.000210495791026 2.62738426987e-06 0)
(0.000207496145755 2.43410785387e-06 0)
(0.000204716005942 2.25403190516e-06 0)
(0.000202140687753 2.08619152527e-06 0)
(0.000199756538051 1.92967472733e-06 0)
(0.00019755088105 1.78362747197e-06 0)
(0.000195511957973 1.64725714113e-06 0)
(0.000193628861261 1.51983533815e-06 0)
(0.000191891464009 1.40070077847e-06 0)
(0.00019029034435 1.28926304905e-06 0)
(0.000188816703695 1.1850080218e-06 0)
(0.000187462276828 1.08750584684e-06 0)
(0.000186219230822 9.96422625925e-07 0)
(0.000185080048586 9.11537198832e-07 0)
(0.000184037391413 8.32764924274e-07 0)
(0.000183083933197 7.60191029949e-07 0)
(0.000182212156914 6.94117088717e-07 0)
(0.00018141410171 6.35125619337e-07 0)
(0.000180681046849 5.84169867912e-07 0)
(0.000180003118036 5.42698645583e-07 0)
(0.000179368805662 5.12829473567e-07 0)
(0.00017876440148 4.97585377396e-07 0)
(0.00017817341173 5.01203696599e-07 0)
(0.000177576144666 5.29479632005e-07 0)
(0.000176950040634 5.89911469965e-07 0)
(0.000176272240845 6.90630736872e-07 0)
(0.00017552867087 8.33651857925e-07 0)
(0.000174732649812 9.77459597315e-07 0)
(0.00122478567735 0.000267835797465 0)
(0.00124105891823 0.0003836648183 0)
(0.00119603389388 0.000347972489375 0)
(0.00111302782655 0.000284451580552 0)
(0.00101965892325 0.00022613282288 0)
(0.000929635260948 0.000179236810791 0)
(0.000848398167238 0.000142979998957 0)
(0.000777353232082 0.000115168345419 0)
(0.000716142181957 9.3727398088e-05 0)
(0.000663747825297 7.70234546672e-05 0)
(0.000618997866263 6.38454816775e-05 0)
(0.000580776299142 5.33135099247e-05 0)
(0.000548098551123 4.47896656308e-05 0)
(0.000520126304643 3.7808725694e-05 0)
(0.000496157834495 3.20278413619e-05 0)
(0.0004756102043 2.71911849552e-05 0)
(0.000458000395478 2.31053151669e-05 0)
(0.000442928134775 1.96219949119e-05 0)
(0.000430061253066 1.66261309824e-05 0)
(0.000419123591084 1.40272298394e-05 0)
(0.000409885163319 1.17532782687e-05 0)
(0.000402154213659 9.74630940072e-06 0)
(0.000395770811625 7.95915127714e-06 0)
(0.000390601685752 6.35301401218e-06 0)
(0.000386536044272 4.89567820133e-06 0)
(0.000383482182341 3.56011947801e-06 0)
(0.000381364716377 2.32345317981e-06 0)
(0.000380122319307 1.16611706574e-06 0)
(0.00037970585655 7.12334975944e-08 0)
(0.000380076842625 -9.75890778882e-07 0)
(0.000381206152853 -1.98815516049e-06 0)
(0.000383072937113 -2.97697192201e-06 0)
(0.000385663691413 -3.95250371557e-06 0)
(0.000388971447531 -4.92383907506e-06 0)
(0.000392995044576 -5.8991128716e-06 0)
(0.000397738448386 -6.88557475043e-06 0)
(0.00040321008495 -7.88960575431e-06 0)
(0.000409422152935 -8.91668058061e-06 0)
(0.000416389878142 -9.97127088256e-06 0)
(0.000424130669458 -1.10566829752e-05 0)
(0.00043266313209 -1.21748222281e-05 0)
(0.000442005890038 -1.33258758415e-05 0)
(0.00045217616668 -1.45079070182e-05 0)
(0.000463188071356 -1.57163566548e-05 0)
(0.000475050542492 -1.69434555197e-05 0)
(0.000487764906556 -1.81775607004e-05 0)
(0.000501322029708 -1.94024470435e-05 0)
(0.000515699068826 -2.0596607186e-05 0)
(0.000530855873697 -2.17326434134e-05 0)
(0.00054673115512 -2.27768679437e-05 0)
(0.000563238614535 -2.36892615558e-05 0)
(0.000580263325908 -2.44239643755e-05 0)
(0.000597658760581 -2.49304764407e-05 0)
(0.000615244934036 -2.51557147194e-05 0)
(0.000632808206725 -2.50469968669e-05 0)
(0.000650103261663 -2.45558939463e-05 0)
(0.000666857682921 -2.36427226141e-05 0)
(0.000682779354413 -2.22812525455e-05 0)
(0.000697566587518 -2.04630257922e-05 0)
(0.00071092049455 -1.82005708806e-05 0)
(0.000722558708506 -1.55288062055e-05 0)
(0.000732229194511 -1.25041168592e-05 0)
(0.000739722712051 -9.20097564439e-06 0)
(0.00074488256623 -5.7065012765e-06 0)
(0.000747610666474 -2.11384844845e-06 0)
(0.000747869521668 1.48440279159e-06 0)
(0.000745680468997 5.00177493934e-06 0)
(0.000741118954451 8.3616704165e-06 0)
(0.000734307904517 1.14993523473e-05 0)
(0.00072541015229 1.43624834148e-05 0)
(0.000714620624188 1.69107830249e-05 0)
(0.000702158680868 1.91153521761e-05 0)
(0.000688260747622 2.09580332288e-05 0)
(0.000673173225713 2.24309397279e-05 0)
(0.000657145652397 2.35360901661e-05 0)
(0.000640424142978 2.42849594409e-05 0)
(0.000623245253823 2.46977398217e-05 0)
(0.000605830497795 2.48021713038e-05 0)
(0.000588381782141 2.46319232906e-05 0)
(0.000571078005638 2.42246381827e-05 0)
(0.000554072956466 2.36198369299e-05 0)
(0.000537494523493 2.28569144784e-05 0)
(0.000521445107056 2.19734206551e-05 0)
(0.00050600301859 2.10037521018e-05 0)
(0.000491224605973 1.99782998542e-05 0)
(0.000477146832591 1.89230283016e-05 0)
(0.000463790063511 1.78594151576e-05 0)
(0.000451160857736 1.68046612531e-05 0)
(0.000439254618945 1.57720776745e-05 0)
(0.000428058008558 1.47715696514e-05 0)
(0.000417551068996 1.38101539931e-05 0)
(0.00040770903905 1.28924655767e-05 0)
(0.000398503867501 1.20212246469e-05 0)
(0.000389905446529 1.11976499199e-05 0)
(0.000381882595093 1.04218117847e-05 0)
(0.000374403825876 9.69292634785e-06 0)
(0.000367437929536 9.00959469078e-06 0)
(0.000360954407848 8.36999377844e-06 0)
(0.000354923784135 7.77202601508e-06 0)
(0.000349317815581 7.21343446707e-06 0)
(0.000344109628265 6.69189012541e-06 0)
(0.000339273792094 6.20505694201e-06 0)
(0.000334786349604 5.75063948078e-06 0)
(0.000330624809663 5.32641734671e-06 0)
(0.000326768114693 4.9302697993e-06 0)
(0.00032319658785 4.5601934549e-06 0)
(0.000319891864859 4.21431546857e-06 0)
(0.000316836813576 3.89090430351e-06 0)
(0.000314015443088 3.58837993325e-06 0)
(0.000311412802866 3.30532525357e-06 0)
(0.000309014871464 3.04050046366e-06 0)
(0.000306808433116 2.79286232512e-06 0)
(0.000304780939643 2.56159044897e-06 0)
(0.000302920354037 2.3461231543e-06 0)
(0.00030121497125 2.14620596946e-06 0)
(0.000299653211096 1.96195648975e-06 0)
(0.000298223378195 1.79395003205e-06 0)
(0.000296913385281 1.64333108335e-06 0)
(0.000295710440418 1.51195548698e-06 0)
(0.000294600708483 1.40256620326e-06 0)
(0.000293568978225 1.31899806312e-06 0)
(0.000292598408438 1.26638538069e-06 0)
(0.00029167050963 1.25128799675e-06 0)
(0.000290765674924 1.28149393707e-06 0)
(0.000289864853144 1.36482077171e-06 0)
(0.000288953403818 1.50496912485e-06 0)
(0.000288027974328 1.688312164e-06 0)
(0.000287101664943 1.84512945491e-06 0)
(0.00122190140377 0.000221148712873 0)
(0.00125324179333 0.000382738259752 0)
(0.00125064785669 0.000396517990437 0)
(0.00121254479025 0.000357015194512 0)
(0.00115395887018 0.000305524013063 0)
(0.00108730310326 0.000256525030313 0)
(0.00102006274817 0.000214169208813 0)
(0.000956210216656 0.000178876583101 0)
(0.000897581062655 0.000149859345794 0)
(0.000844803694876 0.000126063213131 0)
(0.000797863825994 0.000106495533394 0)
(0.000756430525332 9.03183088537e-05 0)
(0.000720038095484 7.68550280891e-05 0)
(0.000688183990766 6.55696986731e-05 0)
(0.000660379019598 5.60402947096e-05 0)
(0.000636170990548 4.79343766874e-05 0)
(0.000615153927402 4.09889821048e-05 0)
(0.000596969704274 3.49947994169e-05 0)
(0.000581305918974 2.97839820374e-05 0)
(0.000567892097128 2.52208521329e-05 0)
(0.000556495345924 2.11948254523e-05 0)
(0.0005469160322 1.76150171123e-05 0)
(0.000538983759023 1.44061112977e-05 0)
(0.000532553751919 1.15051805002e-05 0)
(0.000527503679973 8.85921967647e-06 0)
(0.000523730893922 6.42322151911e-06 0)
(0.000521150043599 4.15866394163e-06 0)
(0.000519691029809 2.03231464258e-06 0)
(0.000519297244712 1.52821954718e-08 0)
(0.000519924056353 -1.91773785043e-06 0)
(0.000521537495287 -3.78905701007e-06 0)
(0.000524113106277 -5.61846419998e-06 0)
(0.000527634930012 -7.42358748066e-06 0)
(0.000532094579467 -9.22015802387e-06 0)
(0.000537490377205 -1.10221849745e-05 0)
(0.000543826519591 -1.2842044222e-05 0)
(0.00055111223254 -1.46904802464e-05 0)
(0.000559360881128 -1.65765161342e-05 0)
(0.0005685889923 -1.85072641363e-05 0)
(0.0005788151462 -2.04876262341e-05 0)
(0.000590058687685 -2.25198731551e-05 0)
(0.000602338206049 -2.46030899581e-05 0)
(0.000615669728644 -2.67324794178e-05 0)
(0.000630064574334 -2.88985203308e-05 0)
(0.000645526817371 -3.10859900536e-05 0)
(0.000662050323742 -3.32728788694e-05 0)
(0.000679615343223 -3.54292519406e-05 0)
(0.000698184674889 -3.75161516322e-05 0)
(0.000717699474888 -3.94846805184e-05 0)
(0.000738074845623 -4.12754578391e-05 0)
(0.000759195435436 -4.28186939737e-05 0)
(0.000780911383691 -4.40351630494e-05 0)
(0.000803035057888 -4.48383566703e-05 0)
(0.000825339129034 -4.51380479561e-05 0)
(0.000847556592881 -4.48453682141e-05 0)
(0.000869383336078 -4.38792884203e-05 0)
(0.000890483737103 -4.21741183359e-05 0)
(0.000910499560812 -3.96873208969e-05 0)
(0.000929062050788 -3.64066512353e-05 0)
(0.000945806670983 -3.23554462361e-05 0)
(0.000960389456908 -2.75949082673e-05 0)
(0.000972503504224 -2.22225307382e-05 0)
(0.000981893877926 -1.63664417614e-05 0)
(0.00098836929644 -1.01763036218e-05 0)
(0.000991809392552 -3.81224586613e-06 0)
(0.000992167100213 2.56622599725e-06 0)
(0.000989466542343 8.80954299232e-06 0)
(0.000983797428689 1.47845037048e-05 0)
(0.000975307224636 2.03777392577e-05 0)
(0.000964192232236 2.54968012883e-05 0)
(0.000950688391649 3.00697889979e-05 0)
(0.000935062231163 3.40444013152e-05 0)
(0.000917602096543 3.73870005883e-05 0)
(0.000898609637075 4.00819008421e-05 0)
(0.000878391513781 4.21307722581e-05 0)
(0.000857251384918 4.35518626169e-05 0)
(0.000835482355746 4.43787030696e-05 0)
(0.000813360191282 4.46580782915e-05 0)
(0.000791137633329 4.44472416693e-05 0)
(0.000769040116675 4.38105669417e-05 0)
(0.00074726305752 4.2815972784e-05 0)
(0.000725970727728 4.15314999553e-05 0)
(0.000705296575248 4.00223648427e-05 0)
(0.000685344737347 3.83486970534e-05 0)
(0.000666192434001 3.65640354785e-05 0)
(0.000647892921521 3.47145447868e-05 0)
(0.000630478717986 3.2838838962e-05 0)
(0.000613964865919 3.0968264194e-05 0)
(0.000598352058982 2.91274904102e-05 0)
(0.000583629518042 2.73352790724e-05 0)
(0.000569777551631 2.56053221229e-05 0)
(0.000556769774486 2.39470767531e-05 0)
(0.000544574985537 2.23665467434e-05 0)
(0.000533158724867 2.08669827431e-05 0)
(0.000522484539756 1.94494892642e-05 0)
(0.000512514994881 1.81135371838e-05 0)
(0.000503212462831 1.68573869476e-05 0)
(0.000494539729636 1.56784316101e-05 0)
(0.000486460447094 1.45734701829e-05 0)
(0.000478939460046 1.35389222265e-05 0)
(0.000471943032847 1.25709938354e-05 0)
(0.000465438995508 1.16658043719e-05 0)
(0.000459396826433 1.08194819698e-05 0)
(0.000453787685516 1.002823484e-05 0)
(0.000448584408532 9.2884041978e-06 0)
(0.000443761471368 8.5965038487e-06 0)
(0.000439294930509 7.94925059305e-06 0)
(0.000435162344415 7.34358913143e-06 0)
(0.000431342678868 6.77671464703e-06 0)
(0.000427816198026 6.24609605315e-06 0)
(0.000424564341765 5.74950273043e-06 0)
(0.000421569588889 5.28503764302e-06 0)
(0.000418815304974 4.85117983571e-06 0)
(0.000416285573077 4.4468395368e-06 0)
(0.000413965005361 4.07142929605e-06 0)
(0.000411838534203 3.72495460897e-06 0)
(0.000409891183013 3.40812704992e-06 0)
(0.000408107820639 3.12250129843e-06 0)
(0.000406472910196 2.87063341198e-06 0)
(0.000404970275816 2.65624831508e-06 0)
(0.000403582932527 2.48438411692e-06 0)
(0.000402293060668 2.36143650536e-06 0)
(0.000401082263164 2.29492964079e-06 0)
(0.00039993232457 2.29262294282e-06 0)
(0.000398826772964 2.36006332233e-06 0)
(0.000397753450004 2.49449776086e-06 0)
(0.000396707188531 2.67047396921e-06 0)
(0.000395686533803 2.80993163345e-06 0)
(0.00121687648716 0.000182370817379 0)
(0.00124881599054 0.0003582362469 0)
(0.00126498759572 0.000407442313219 0)
(0.00125458885064 0.000394592661743 0)
(0.00122340779183 0.000357713502851 0)
(0.00117976786929 0.00031463120785 0)
(0.00113023185935 0.000272839374247 0)
(0.00107918661904 0.000235104167701 0)
(0.00102932925971 0.0002021182531 0)
(0.000982198124639 0.000173712787665 0)
(0.000938581117948 0.000149402813912 0)
(0.000898798218372 0.000128627208596 0)
(0.000862888025728 0.000110848731465 0)
(0.00083072768079 9.55904262419e-05 0)
(0.000802108443908 8.24437571925e-05 0)
(0.000776782434946 7.10649349849e-05 0)
(0.000754490893061 6.11670124156e-05 0)
(0.000734980729145 5.25111405774e-05 0)
(0.000718013741661 4.48983989698e-05 0)
(0.000703371291897 3.81626930283e-05 0)
(0.000690856215321 3.21647994828e-05 0)
(0.000680293091095 2.67874691202e-05 0)
(0.000671527573505 2.19314390933e-05 0)
(0.000664425222682 1.75122006166e-05 0)
(0.000658870102754 1.34573823607e-05 0)
(0.000654763308292 9.70463120314e-06 0)
(0.000652021512046 6.19989359566e-06 0)
(0.000650575584055 2.89602042702e-06 0)
(0.000650369305182 -2.48365095471e-07 0)
(0.000651358180158 -3.26978181593e-06 0)
(0.00065350834427 -6.20061992049e-06 0)
(0.000656795553438 -9.06972449312e-06 0)
(0.000661204240479 -1.19028402443e-05 0)
(0.000666726614489 -1.47229302543e-05 0)
(0.000673361778838 -1.75503756105e-05 0)
(0.000681114839794 -2.04030569502e-05 0)
(0.000689995974267 -2.32963141766e-05 0)
(0.000700019421278 -2.62427762092e-05 0)
(0.000711202357635 -2.92520491038e-05 0)
(0.000723563613918 -3.2330247985e-05 0)
(0.000737122182636 -3.54793570634e-05 0)
(0.00075189546681 -3.8696402845e-05 0)
(0.000767897215082 -4.19724303267e-05 0)
(0.000785135090112 -4.52912815998e-05 0)
(0.000803607822053 -4.86281936139e-05 0)
(0.00082330191094 -5.19482586776e-05 0)
(0.000844187863652 -5.52048305789e-05 0)
(0.000866215986495 -5.83380118059e-05 0)
(0.000889311807123 -6.12734232587e-05 0)
(0.000913371272793 -6.39215317445e-05 0)
(0.000938255967173 -6.61778824685e-05 0)
(0.000963788702504 -6.7924634374e-05 0)
(0.00098974996842 -6.90337998344e-05 0)
(0.00101587583477 -6.93725149963e-05 0)
(0.00104185798457 -6.88104861422e-05 0)
(0.00106734655844 -6.72294578837e-05 0)
(0.00109195638615 -6.45341474959e-05 0)
(0.00111527693693 -6.06636363715e-05 0)
(0.00113688593008 -5.56017901868e-05 0)
(0.00115636603478 -4.93850056779e-05 0)
(0.00117332351088 -4.21055877235e-05 0)
(0.00118740710891 -3.39094780624e-05 0)
(0.00119832521265 -2.49879590343e-05 0)
(0.0012058592485 -1.55642345465e-05 0)
(0.00120987190671 -5.87707046084e-06 0)
(0.00121030964387 3.83559686224e-06 0)
(0.0012071999721 1.33503851393e-05 0)
(0.00120064481579 2.24679075417e-05 0)
(0.00119081148372 3.10178408446e-05 0)
(0.00117792259733 3.88605419781e-05 0)
(0.00116224585922 4.58865857218e-05 0)
(0.00114408406998 5.20155094245e-05 0)
(0.00112376545748 5.71945922801e-05 0)
(0.00110163422791 6.13979495575e-05 0)
(0.00107804126328 6.46257625469e-05 0)
(0.00105333502133 6.69031948221e-05 0)
(0.00102785286933 6.82785049897e-05 0)
(0.0010019132271 6.8820037804e-05 0)
(0.000975808946667 6.86120774104e-05 0)
(0.000949802294561 6.77498591267e-05 0)
(0.000924121747622 6.63342482132e-05 0)
(0.000898960615328 6.44666504364e-05 0)
(0.00087447731783 6.22446303447e-05 0)
(0.000850797018263 5.97585370325e-05 0)
(0.000828014245656 5.70892412671e-05 0)
(0.000806196143892 5.43069246405e-05 0)
(0.00078538602433 5.14707549639e-05 0)
(0.000765606964253 4.86292342458e-05 0)
(0.000746865263382 4.58210030316e-05 0)
(0.000729153635283 4.30759111395e-05 0)
(0.00071245406402 4.04162040209e-05 0)
(0.000696740297239 3.78577156024e-05 0)
(0.000681979975786 3.54109955623e-05 0)
(0.000668136418884 3.30823291498e-05 0)
(0.000655170094973 3.08746298941e-05 0)
(0.00064303981369 2.87882010783e-05 0)
(0.00063170367594 2.68213715813e-05 0)
(0.000621119817835 2.49710173907e-05 0)
(0.000611246981654 2.32329826615e-05 0)
(0.000602044943484 2.16024149673e-05 0)
(0.000593474823472 2.00740288179e-05 0)
(0.00058549930085 1.86423104234e-05 0)
(0.000578082752354 1.73016751679e-05 0)
(0.000571191329444 1.60465877987e-05 0)
(0.000564792986838 1.48716538521e-05 0)
(0.000558857472335 1.37716896113e-05 0)
(0.000553356285752 1.27417767795e-05 0)
(0.000548262612866 1.17773072152e-05 0)
(0.000543551238674 1.08740223939e-05 0)
(0.000539198442924 1.00280518047e-05 0)
(0.000535181879722 9.23595416971e-06 0)
(0.000531480442154 8.49476519974e-06 0)
(0.000528074112235 7.80205548573e-06 0)
(0.00052494379622 7.15600198331e-06 0)
(0.000522071145549 6.55547622238e-06 0)
(0.000519438364624 6.00015153842e-06 0)
(0.000517028008684 5.4906297906e-06 0)
(0.000514822778751 5.02858415698e-06 0)
(0.000512805326832 4.61690694302e-06 0)
(0.000510958094389 4.25983636234e-06 0)
(0.00050926322183 3.9630073985e-06 0)
(0.000507702587338 3.73331579058e-06 0)
(0.000506258057938 3.57837421228e-06 0)
(0.000504912051916 3.5051206569e-06 0)
(0.000503648466708 3.51670079016e-06 0)
(0.000502453729509 3.60591951812e-06 0)
(0.000501316576976 3.74246589123e-06 0)
(0.000500222564277 3.85260718278e-06 0)
(0.00121276629303 0.000152728031697 0)
(0.0012413591089 0.000327346695785 0)
(0.00126491302169 0.000398606322503 0)
(0.00127052332086 0.000408217074677 0)
(0.00125846735674 0.000387326088799 0)
(0.00123340077901 0.000353725097863 0)
(0.00120017216585 0.000316510083084 0)
(0.00116262364421 0.000280027196832 0)
(0.00112349792831 0.000246178275579 0)
(0.00108464070329 0.000215641102038 0)
(0.00104723430918 0.000188497877562 0)
(0.00101199306507 0.000164556266372 0)
(0.000979310629942 0.000143512279772 0)
(0.000949366247641 0.000125031584107 0)
(0.000922199491771 0.000108788571686 0)
(0.000897762016922 9.44835846349e-05 0)
(0.000875952939332 8.1848963342e-05 0)
(0.000856642733345 7.0649541464e-05 0)
(0.000839689151188 6.06805504746e-05 0)
(0.000824947644519 5.17644815748e-05 0)
(0.000812278021811 4.37476947244e-05 0)
(0.000801548546748 3.64971585741e-05 0)
(0.000792638310988 2.98974893018e-05 0)
(0.000785438455186 2.38483442523e-05 0)
(0.000779852631662 1.82621702958e-05 0)
(0.000775796976969 1.30622814284e-05 0)
(0.000773199775754 8.18123070498e-06 0)
(0.000772000937083 3.55944069848e-06 0)
(0.000772151362419 -8.55940293494e-07 0)
(0.000773612253431 -5.11198028252e-06 0)
(0.000776354388619 -9.25072767309e-06 0)
(0.000780357385382 -1.33098288604e-05 0)
(0.00078560894904 -1.73229920588e-05 0)
(0.000792104100933 -2.13203091373e-05 0)
(0.00079984437291 -2.53284371622e-05 0)
(0.000808836949116 -2.93706359776e-05 0)
(0.000819093730324 -3.3466653529e-05 0)
(0.000830630290633 -3.76324461112e-05 0)
(0.000843464691086 -4.18797171134e-05 0)
(0.000857616109607 -4.62152549552e-05 0)
(0.000873103241803 -5.0640050145e-05 0)
(0.000889942423102 -5.51481731954e-05 0)
(0.000908145420004 -5.97254017812e-05 0)
(0.000927716838179 -6.4347598482e-05 0)
(0.000948651099179 -6.89788631342e-05 0)
(0.000970928948136 -7.3569518623e-05 0)
(0.000994513474854 -7.80540396879e-05 0)
(0.00101934566418 -8.23491023504e-05 0)
(0.0010453395428 -8.63520172155e-05 0)
(0.00107237706342 -8.99399069981e-05 0)
(0.001100302966 -9.29700847581e-05 0)
(0.00112891998027 -9.52821599378e-05 0)
(0.00115798487429 -9.67024101977e-05 0)
(0.00118720599431 -9.70508649003e-05 0)
(0.00121624304853 -9.61513123115e-05 0)
(0.00124470991927 -9.38440468922e-05 0)
(0.00127218119843 -9.00006350184e-05 0)
(0.00129820289239 -8.45393630339e-05 0)
(0.00132230731886 -7.74394533403e-05 0)
(0.00134403163754 -6.87517379729e-05 0)
(0.00136293877276 -5.86034419721e-05 0)
(0.00137863881482 -4.71952436286e-05 0)
(0.00139080851674 -3.47899846249e-05 0)
(0.00139920648087 -2.16942012778e-05 0)
(0.00140368223908 -8.23552008018e-06 0)
(0.00140417860028 5.25994022217e-06 0)
(0.00140072797649 1.84863214954e-05 0)
(0.00139344436747 3.11707131739e-05 0)
(0.0013825129504 4.30797542035e-05 0)
(0.00136817886264 5.40215668097e-05 0)
(0.00135073612074 6.38450002376e-05 0)
(0.00133051700731 7.2437953435e-05 0)
(0.00130788185752 7.97258641856e-05 0)
(0.00128320902848 8.56706887906e-05 0)
(0.0012568848944 9.02700745072e-05 0)
(0.00122929390389 9.35560686551e-05 0)
(0.00120080897595 9.55926659608e-05 0)
(0.00117178270328 9.64717486126e-05 0)
(0.0011425399011 9.63074084309e-05 0)
(0.00111337195835 9.52290846606e-05 0)
(0.00108453324828 9.33742438966e-05 0)
(0.00105623960711 9.08813948594e-05 0)
(0.00102866866686 8.78840926102e-05 0)
(0.00100196167974 8.45063324741e-05 0)
(0.00097622641013 8.08594609403e-05 0)
(0.00095154068128 7.70405101044e-05 0)
(0.000927956222909 7.31317233441e-05 0)
(0.00090550254466 6.92009812602e-05 0)
(0.000884190641391 6.53028381732e-05 0)
(0.000864016407044 6.14799172216e-05 0)
(0.000844963690274 5.77644653555e-05 0)
(0.000827006966549 5.41799246399e-05 0)
(0.000810113629936 5.0742424847e-05 0)