/*--------------------------------*- C++ -*----------------------------------*\
  =========                 |
  \\      /  F ield         | OpenFOAM: The Open Source CFD Toolbox
   \\    /   O peration     | Website:  https://openfoam.org
    \\  /    A nd           | Version:  7
     \\/     M anipulation  |
\*---------------------------------------------------------------------------*/
FoamFile
{
    version     2.0;
    format      ascii;
    class       volScalarField;
    location    "960";
    object      Ci;
}
// * * * * * * * * * * * * * * * * * * * * * * * * * * * * * * * * * * * * * //

dimensions      [0 -3 0 0 1 0 0];

internalField   nonuniform List<scalar> 
8192
(
10.0000000202
9.99999993048
9.99999981786
9.99999969642
9.99999956971
9.99999943429
9.99999928875
9.99999913247
9.99999896775
9.99999879489
9.9999986166
9.99999843268
9.99999824609
9.99999805637
9.99999786694
9.99999767721
9.99999749113
9.99999730803
9.99999713236
9.99999696324
9.99999680547
9.99999665775
9.99999652492
9.99999640494
9.99999630233
9.99999621397
9.99999614376
9.99999608721
9.99999604732
9.99999601801
9.99999600118
9.99999598907
9.99999598251
9.99999597226
9.99999595833
9.9999959304
9.9999958882
9.99999582098
9.99999572883
9.99999560135
9.99999543982
9.99999523492
9.9999949898
9.99999469678
9.99999436141
9.99999397799
9.99999355478
9.99999308822
9.99999258959
9.99999205772
9.99999150741
9.99999094047
9.99999037601
9.99998981942
9.99998929463
9.99998881054
9.99998839498
9.99998805842
9.99998782957
9.99998771675
9.99998774546
9.99998791808
9.99998825316
9.99998874379
9.99998939772
9.99999019559
9.99999113274
9.99999217986
9.99999332619
9.99999454107
9.99999581457
9.99999711827
9.99999844315
9.99999976197
10.000001066
10.00000233
10.0000035476
10.0000046984
10.0000057806
10.0000067798
10.0000076998
10.000008532
10.0000092849
10.000009955
10.0000105546
10.0000110841
10.0000115582
10.0000119794
10.0000123634
10.0000127131
10.0000130433
10.0000133557
10.0000136631
10.000013965
10.0000142715
10.0000145796
10.0000148961
10.0000152153
10.0000155422
10.0000158698
10.0000162014
10.0000165291
10.0000168556
10.0000171724
10.0000174818
10.0000177756
10.0000180558
10.0000183146
10.0000185541
10.0000187671
10.000018956
10.0000191139
10.0000192433
10.0000193379
10.0000194001
10.0000194239
10.0000194115
10.0000193567
10.0000192614
10.0000191191
10.0000189317
10.0000186941
10.0000184111
10.0000180834
10.0000177244
10.0000173477
10.0000169844
10.0000167163
9.99999998238
9.99999988796
9.99999979328
9.99999970133
9.99999960411
9.99999949554
9.99999937405
9.99999923942
9.99999909388
9.99999893836
9.99999877556
9.99999860597
9.99999843235
9.99999825482
9.99999807639
9.99999789703
9.99999772012
9.99999754557
9.99999737715
9.99999721464
9.99999706208
9.9999969189
9.9999967892
9.99999667176
9.99999657029
9.99999648265
9.99999641199
9.99999635491
9.99999631377
9.99999628372
9.99999626602
9.99999625426
9.99999624872
9.99999624159
9.99999623238
9.99999621229
9.99999618048
9.99999612776
9.99999605354
9.99999594899
9.99999581445
9.99999564211
9.99999543392
9.99999518356
9.99999489508
9.99999456393
9.99999419657
9.99999379038
9.99999335454
9.99999288863
9.99999240493
9.9999919057
9.99999140692
9.99999091399
9.99999044679
9.99999001363
9.9999896373
9.99998932736
9.99998910697
9.99998898403
9.99998897888
9.99998909495
9.99998934696
9.99998973125
9.99999025401
9.9999909023
9.99999167297
9.99999254559
9.99999351197
9.99999454987
9.99999565067
9.99999679263
9.99999796685
9.99999915156
10.0000003374
10.0000015036
10.000002642
10.0000037348
10.0000047772
10.0000057556
10.0000066697
10.0000075107
10.0000082824
10.0000089806
10.0000096133
10.0000101801
10.000010692
10.0000111514
10.0000115708
10.0000119537
10.0000123124
10.00001265
10.0000129775
10.0000132961
10.0000136146
10.000013932
10.0000142539
10.0000145764
10.0000149038
10.0000152311
10.0000155611
10.0000158876
10.0000162124
10.0000165288
10.0000168379
10.0000171332
10.0000174156
10.0000176787
10.0000179236
10.0000181441
10.0000183416
10.0000185105
10.000018652
10.000018761
10.0000188388
10.0000188805
10.0000188872
10.0000188539
10.0000187813
10.0000186641
10.0000185032
10.000018294
10.0000180399
10.0000177405
10.0000174027
10.00001704
10.000016673
10.0000163664
9.99999998248
9.99999990963
9.99999984259
9.99999977395
9.99999970232
9.99999962343
9.99999953616
9.99999943846
9.99999933177
9.9999992151
9.999999091
9.99999895866
9.99999882128
9.99999867798
9.99999853244
9.99999838362
9.99999823571
9.99999808748
9.9999979436
9.99999780263
9.99999766959
9.99999754268
9.99999742711
9.99999732048
9.99999722796
9.99999714622
9.99999708018
9.99999702527
9.99999698603
9.99999695639
9.9999969404
9.99999693029
9.99999692969
9.99999692926
9.99999693226
9.99999692822
9.99999692013
9.99999689716
9.99999686223
9.99999680492
9.99999672852
9.99999662359
9.99999649436
9.99999633257
9.99999614403
9.99999592166
9.99999567319
9.9999953927
9.99999509008
9.99999476066
9.99999441679
9.99999405531
9.99999369144
9.99999332389
9.99999297094
9.99999263313
9.99999233127
9.99999206682
9.99999186146
9.99999171587
9.99999165048
9.99999166342
9.99999177185
9.99999196981
9.9999922693
9.99999265873
9.99999314381
9.9999937081
9.99999435343
9.99999506215
9.99999583518
9.99999665496
9.99999752115
9.99999841543
9.99999933571
10.0000002632
10.0000011951
10.0000021135
10.0000030162
10.0000038873
10.0000047263
10.0000055199
10.0000062704
10.0000069679
10.0000076177
10.0000082134
10.0000087635
10.0000092649
10.0000097283
10.0000101527
10.0000105498
10.0000109196
10.0000112735
10.0000116108
10.0000119417
10.0000122644
10.000012587
10.0000129058
10.000013227
10.0000135454
10.0000138659
10.0000141822
10.000014498
10.0000148064
10.0000151102
10.0000154024
10.0000156855
10.0000159523
10.0000162052
10.0000164375
10.0000166514
10.0000168405
10.0000170071
10.0000171451
10.0000172569
10.0000173365
10.0000173863
10.0000174001
10.00001738
10.0000173196
10.0000172207
10.0000170778
10.0000168945
10.0000166695
10.0000164023
10.0000161012
10.0000157719
10.0000154866
9.99999998396
9.99999993436
9.99999988054
9.99999983234
9.99999978535
9.99999973465
9.99999967847
9.99999961538
9.99999954568
9.9999994687
9.99999938538
9.99999929536
9.99999920005
9.99999909932
9.99999899504
9.99999888725
9.99999877819
9.99999866802
9.99999855933
9.99999845228
9.99999834975
9.99999825172
9.99999816128
9.99999807795
9.99999800497
9.99999794099
9.99999788945
9.99999784752
9.99999781912
9.99999779926
9.99999779267
9.99999779164
9.99999780206
9.99999781337
9.99999783244
9.99999784679
9.99999786335
9.99999786954
9.99999787103
9.99999785715
9.99999783155
9.99999778649
9.9999977241
9.99999763925
9.99999753386
9.99999740456
9.99999725419
9.99999708056
9.99999688794
9.9999966753
9.99999644853
9.99999620799
9.99999596139
9.9999957108
9.99999546588
9.99999523037
9.99999501553
9.99999482604
9.99999467357
9.99999456235
9.99999450286
9.99999449744
9.9999945541
9.99999467223
9.99999485621
9.99999510128
9.99999540739
9.99999576609
9.9999961754
9.99999662696
9.99999711994
9.99999764705
9.99999820766
9.99999879412
9.999999405
10.0000000321
10.0000006734
10.0000013206
10.0000019716
10.000002618
10.0000032577
10.0000038826
10.0000044909
10.0000050757
10.0000056364
10.0000061679
10.0000066715
10.0000071444
10.0000075899
10.0000080073
10.0000084014
10.0000087727
10.0000091269
10.0000094648
10.0000097921
10.0000101092
10.000010421
10.000010727
10.0000110309
10.0000113311
10.00001163
10.0000119255
10.0000122188
10.0000125069
10.0000127907
10.0000130665
10.0000133348
10.0000135918
10.0000138376
10.0000140685
10.0000142845
10.000014482
10.000014661
10.000014818
10.0000149531
10.0000150627
10.000015147
10.0000152025
10.0000152288
10.0000152223
10.0000151821
10.0000151048
10.0000149899
10.0000148393
10.0000146489
10.0000144325
10.0000141614
10.0000139857
9.99999999287
9.99999996287
9.99999993332
9.99999990099
9.99999986831
9.99999983337
9.99999979544
9.99999975351
9.99999970795
9.99999965805
9.99999960439
9.99999954634
9.99999948477
9.99999941924
9.99999935097
9.99999927974
9.99999920718
9.99999913322
9.99999905991
9.99999898718
9.99999891757
9.99999885065
9.99999878964
9.99999873317
9.9999986856
9.9999986435
9.99999861346
9.99999858819
9.99999857827
9.99999857009
9.99999858063
9.99999858731
9.9999986156
9.99999863265
9.99999867231
9.99999869364
9.99999873478
9.99999875326
9.99999878399
9.99999879155
9.99999880061
9.99999878832
9.99999876741
9.9999987268
9.9999986713
9.99999859664
9.99999850526
9.99999839548
9.99999827038
9.99999812941
9.99999797707
9.99999781389
9.99999764595
9.99999747508
9.99999730893
9.99999715066
9.99999700913
9.9999968882
9.99999679687
9.99999673841
9.99999672051
9.99999674459
9.99999681595
9.99999693323
9.99999709837
9.99999730604
9.99999755392
9.99999783336
9.99999814064
9.99999846817
9.99999881445
9.99999917413
9.99999954704
9.99999992861
10.0000003191
10.0000007144
10.0000011155
10.000001519
10.0000019261
10.0000023337
10.0000027426
10.0000031493
10.0000035538
10.0000039523
10.0000043447
10.0000047275
10.0000051007
10.0000054616
10.0000058114
10.000006148
10.0000064737
10.0000067874
10.0000070918
10.0000073865
10.0000076746
10.0000079558
10.0000082328
10.0000085052
10.0000087753
10.0000090421
10.0000093074
10.0000095696
10.0000098299
10.0000100862
10.0000103391
10.0000105863
10.0000108279
10.0000110614
10.0000112867
10.0000115011
10.0000117044
10.0000118938
10.000012069
10.0000122273
10.0000123684
10.0000124895
10.0000125903
10.0000126681
10.0000127221
10.0000127496
10.000012749
10.0000127181
10.0000126536
10.0000125595
10.0000124239
10.0000122839
10.0000120549
10.0000120047
9.99999999179
9.99999997208
9.99999994778
9.99999993007
9.99999991454
9.99999989695
9.99999987621
9.99999985186
9.99999982444
9.99999979384
9.99999976063
9.99999972455
9.9999996862
9.99999964531
9.99999960269
9.99999955813
9.99999951281
9.99999946649
9.99999942097
9.99999937562
9.99999933329
9.99999929215
9.99999925717
9.99999922341
9.99999920035
9.99999917635
9.99999916989
9.99999915627
9.99999917072
9.99999916573
9.99999920409
9.99999920376
9.99999926611
9.99999926574
9.99999934685
9.9999993434
9.99999943097
9.99999942448
9.99999950077
9.99999949227
9.99999954012
9.99999952698
9.99999953679
9.99999951045
9.99999948185
9.9999994322
9.9999993696
9.99999929166
9.99999920034
9.99999909668
9.99999898348
9.99999886252
9.99999873803
9.99999861286
9.99999849245
9.99999838088
9.99999828455
9.99999820828
9.99999815856
9.99999813974
9.999998157
9.99999821296
9.99999831048
9.99999844947
9.9999986294
9.99999884578
9.99999909317
9.99999936275
9.99999964756
9.99999994003
10.0000002365
10.0000005321
10.0000008249
10.0000011112
10.0000013902
10.0000016593
10.0000019194
10.0000021697
10.0000024126
10.0000026482
10.0000028793
10.0000031057
10.0000033299
10.0000035512
10.0000037713
10.0000039894
10.0000042068
10.0000044224
10.0000046375
10.0000048512
10.0000050646
10.0000052771
10.0000054897
10.0000057019
10.000005915
10.0000061281
10.0000063424
10.0000065571
10.0000067731
10.0000069893
10.0000072064
10.0000074231
10.0000076397
10.0000078547
10.0000080681
10.0000082783
10.000008485
10.0000086863
10.0000088819
10.0000090699
10.0000092496
10.000009419
10.0000095776
10.0000097232
10.0000098552
10.0000099716
10.0000100715
10.000010153
10.0000102149
10.0000102556
10.0000102725
10.0000102657
10.0000102279
10.0000101706
10.000010064
10.0000099804
10.0000097657
10.0000098142
9.99999999813
9.99999998656
9.99999997772
9.99999996773
9.99999995867
9.99999994855
9.9999999363
9.99999992157
9.99999990462
9.99999988554
9.99999986471
9.99999984213
9.99999981816
9.99999979273
9.99999976641
9.99999973895
9.99999971151
9.99999968332
9.99999965681
9.99999962961
9.99999960706
9.99999958266
9.99999956832
9.99999954777
9.9999995474
9.99999952972
9.99999955104
9.99999953163
9.99999958474
9.99999955417
9.99999965084
9.99999959582
9.99999974587
9.99999965413
9.99999985786
9.99999972731
9.99999996602
9.99999981296
10.0000000463
9.99999990247
10.0000000818
9.99999997531
10.0000000699
10.0000000032
10.0000000168
9.99999996615
9.99999992502
9.99999986415
9.99999979243
9.9999997122
9.99999962316
9.99999952941
9.9999994331
9.99999933779
9.99999924724
9.99999916575
9.9999990981
9.99999904926
9.99999902438
9.99999902824
9.99999906507
9.99999913822
9.99999925002
9.99999940132
9.99999959109
9.99999981531
10.0000000673
10.0000003379
10.0000006187
10.000000902
10.0000011827
10.0000014565
10.0000017197
10.0000019689
10.0000022015
10.0000024156
10.0000026107
10.0000027868
10.0000029457
10.0000030888
10.0000032185
10.0000033367
10.0000034457
10.0000035473
10.0000036437
10.0000037367
10.0000038281
10.0000039196
10.0000040127
10.0000041086
10.0000042087
10.0000043137
10.0000044245
10.0000045415
10.0000046651
10.0000047951
10.0000049318
10.0000050745
10.0000052231
10.0000053768
10.0000055351
10.0000056971
10.000005862
10.0000060289
10.0000061968
10.0000063645
10.000006531
10.0000066952
10.0000068559
10.0000070117
10.0000071616
10.0000073041
10.000007438
10.000007562
10.0000076748
10.0000077751
10.0000078615
10.0000079329
10.0000079874
10.0000080248
10.0000080408
10.0000080393
10.0000080065
10.0000079665
10.0000078663
10.0000078186
10.0000075997
10.0000077055
9.99999999327
9.99999998379
9.99999997235
9.99999997018
9.99999997188
9.99999997261
9.99999997081
9.99999996605
9.99999995887
9.99999994939
9.99999993826
9.99999992547
9.99999991173
9.99999989665
9.9999998814
9.99999986489
9.99999984957
9.9999998325
9.99999981937
9.99999980245
9.99999979519
9.99999977819
9.99999978287
9.99999976293
9.99999978972
9.99999975842
9.99999982428
9.99999976357
9.99999989559
9.99999977388
10.0000000108
9.99999978315
10.0000001701
9.99999978906
10.0000003579
9.99999980102
10.0000005367
9.99999984282
10.0000006536
9.99999993849
10.0000006674
10.0000000823
10.0000005824
10.0000002213
10.0000004499
10.0000002861
10.0000003199
10.000000249
10.0000001985
10.0000001384
10.0000000666
9.99999999589
9.99999992095
9.999999848
9.99999977851
9.9999997165
9.99999966551
9.9999996303
9.99999961577
9.99999962709
9.99999966871
9.99999974499
9.99999985889
10.0000000126
10.0000002055
10.000000434
10.0000006905
10.0000009647
10.0000012464
10.0000015275
10.0000018028
10.0000020674
10.0000023179
10.0000025497
10.0000027599
10.0000029455
10.0000031062
10.000003242
10.000003355
10.0000034469
10.0000035205
10.0000035779
10.0000036217
10.0000036541
10.0000036778
10.0000036952
10.0000037076
10.0000037167
10.0000037256
10.0000037359
10.0000037504
10.0000037703
10.0000037975
10.0000038329
10.0000038777
10.000003932
10.0000039964
10.0000040703
10.0000041539
10.000004246
10.0000043464
10.0000044538
10.0000045675
10.0000046861
10.0000048087
10.0000049339
10.0000050605
10.0000051871
10.0000053127
10.0000054354
10.0000055544
10.0000056679
10.0000057748
10.0000058736
10.000005963
10.0000060418
10.0000061084
10.0000061622
10.0000062007
10.0000062252
10.0000062292
10.0000062211
10.0000061799
10.0000061428
10.0000060349
10.0000060033
10.0000057746
10.000005899
9.99999999912
9.99999999601
9.99999999681
9.99999999729
9.99999999984
10.0000000025
10.0000000037
10.0000000031
10.0000000007
9.99999999673
9.99999999149
9.99999998499
9.99999997795
9.99999996967
9.99999996196
9.99999995239
9.99999994571
9.99999993498
9.99999993235
9.99999991953
9.99999992652
9.99999990788
9.99999993505
9.99999990036
9.99999996782
9.99999989365
10.0000000389
9.99999987811
10.0000001675
9.99999983608
10.0000003761
9.99999974464
10.0000006818
9.99999958837
10.000001076
9.99999938434
10.0000014964
9.99999920763
10.0000018145
9.99999918295
10.0000018801
9.99999940725
10.0000016327
9.99999983587
10.0000011927
10.000000264
10.0000007906
10.0000004913
10.0000005587
10.0000005008
10.0000004455
10.0000004116
10.0000003548
10.0000003092
10.0000002598
10.0000002158
10.0000001758
10.0000001475
10.0000001347
10.0000001434
10.0000001785
10.0000002462
10.0000003508
10.0000004954
10.0000006801
10.0000009012
10.0000011508
10.0000014179
10.0000016921
10.0000019645
10.0000022294
10.0000024822
10.0000027175
10.0000029309
10.0000031188
10.0000032792
10.0000034116
10.0000035173
10.0000035983
10.0000036572
10.0000036966
10.0000037189
10.0000037261
10.0000037206
10.0000037044
10.0000036799
10.0000036497
10.0000036153
10.0000035806
10.0000035452
10.0000035109
10.0000034805
10.0000034556
10.0000034384
10.00000343
10.0000034316
10.0000034437
10.0000034668
10.0000035005
10.0000035449
10.000003599
10.0000036624
10.0000037339
10.0000038126
10.0000038969
10.000003986
10.0000040782
10.0000041723
10.0000042666
10.00000436
10.0000044506
10.0000045373
10.0000046183
10.0000046925
10.0000047582
10.0000048146
10.0000048595
10.0000048933
10.0000049122
10.0000049197
10.0000049064
10.0000048859
10.0000048298
10.0000047872
10.0000046663
10.0000046366
10.0000044011
10.0000045156
9.9999999933
9.99999999206
9.99999998952
9.99999999627
10.0000000071
10.0000000173
10.0000000255
10.0000000311
10.0000000347
10.0000000364
10.0000000369
10.0000000358
10.0000000346
10.0000000315
10.0000000303
10.0000000253
10.0000000264
10.0000000187
10.0000000266
10.0000000127
10.0000000363
10.0000000074
10.0000000645
9.99999999901
10.0000001262
9.99999997641
10.0000002458
9.99999991503
10.0000004624
9.9999997705
10.0000008332
9.99999947761
10.0000014259
9.99999896713
10.0000022849
9.99999821754
10.0000033595
9.99999734279
10.0000044151
9.99999666129
10.0000050226
9.99999661691
10.0000047633
9.99999746096
10.0000036222
9.99999889358
10.0000021828
10.0000001677
10.0000011845
10.0000007685
10.0000008241
10.0000008405
10.0000007616
10.000000763
10.0000007154
10.0000006829
10.0000006452
10.0000006134
10.0000005885
10.0000005802
10.0000005976
10.0000006512
10.0000007426
10.0000008708
10.0000010323
10.0000012287
10.0000014572
10.0000017138
10.0000019876
10.0000022684
10.0000025448
10.0000028069
10.0000030455
10.0000032539
10.000003428
10.0000035665
10.0000036706
10.0000037434
10.0000037894
10.0000038127
10.0000038175
10.0000038064
10.0000037822
10.0000037468
10.0000037023
10.0000036503
10.0000035933
10.0000035327
10.0000034713
10.0000034108
10.0000033532
10.0000032998
10.0000032506
10.0000032075
10.0000031721
10.0000031459
10.0000031298
10.0000031242
10.0000031295
10.0000031455
10.0000031717
10.0000032076
10.0000032523
10.0000033047
10.0000033637
10.000003428
10.0000034962
10.0000035669
10.0000036384
10.0000037094
10.0000037783
10.0000038436
10.0000039038
10.0000039574
10.0000040029
10.0000040395
10.0000040651
10.0000040802
10.0000040808
10.0000040714
10.0000040413
10.0000040073
10.0000039365
10.0000038847
10.000003753
10.0000037161
10.0000034815
10.0000035702
9.99999999967
10.0000000066
10.0000000173
10.0000000264
10.0000000371
10.0000000476
10.0000000569
10.0000000645
10.0000000707
10.0000000753
10.0000000794
10.0000000817
10.000000085
10.0000000853
10.0000000895
10.0000000873
10.0000000955
10.0000000885
10.0000001069
10.0000000892
10.0000001303
10.0000000871
10.0000001772
10.0000000741
10.0000002684
10.0000000302
10.0000004412
9.99999991167
10.0000007625
9.99999963518
10.0000013448
9.99999906102
10.0000023554
9.99999799425
10.0000039921
9.99999624438
10.0000063727
9.99999379664
10.0000093021
9.99999109084
10.0000120016
9.9999892068
10.0000131369
9.99998950341
10.0000115962
9.99999248587
10.0000077616
9.99999680152
10.0000037624
10.0000000735
10.0000015818
10.0000012674
10.0000011247
10.0000013101
10.0000011569
10.0000011802
10.0000011263
10.0000010862
10.0000010308
10.0000009958
10.0000010128
10.000001065
10.0000010819
10.000001
10.0000008335
10.0000006743
10.0000006339
10.0000007769
10.0000011002
10.000001547
10.0000020426
10.0000025216
10.0000029409
10.0000032799
10.0000035358
10.0000037157
10.000003831
10.0000038947
10.0000039192
10.0000039149
10.0000038892
10.0000038477
10.0000037936
10.0000037297
10.0000036579
10.0000035805
10.0000035
10.0000034189
10.0000033395
10.0000032642
10.0000031946
10.0000031325
10.0000030786
10.0000030332
10.000002995
10.0000029651
10.0000029439
10.0000029322
10.00000293
10.0000029374
10.0000029539
10.0000029792
10.0000030125
10.000003053
10.0000030994
10.0000031508
10.0000032057
10.0000032628
10.0000033205
10.0000033774
10.000003432
10.0000034827
10.000003528
10.0000035668
10.000003597
10.0000036185
10.0000036287
10.0000036288
10.0000036143
10.000003591
10.0000035469
10.0000035008
10.0000034187
10.0000033572
10.0000032198
10.0000031723
10.0000029466
10.000003004
9.99999999387
10.0000000039
10.0000000127
10.000000029
10.0000000484
10.0000000665
10.0000000823
10.0000000954
10.0000001068
10.0000001157
10.0000001244
10.0000001305
10.0000001385
10.0000001421
10.0000001516
10.0000001519
10.0000001667
10.0000001606
10.000000188
10.0000001679
10.0000002227
10.0000001704
10.0000002839
10.0000001579
10.0000003956
10.0000001047
10.0000006039
9.99999995381
10.0000009975
9.99999958811
10.0000017423
9.9999987867
10.0000031297
9.9999971755
10.0000056123
9.99999422128
10.0000097477
9.99998939029
10.0000158916
9.99998265102
10.0000234907
9.99997532884
10.000030253
9.9999706454
10.0000323022
9.99997246263
10.0000267657
9.99998159494
10.000015679
9.99999314465
10.0000057903
10.0000003866
10.0000016798
10.0000021001
10.0000013352
10.0000018199
10.0000015345
10.0000014762
10.0000013382
10.0000014429
10.0000016267
10.0000012646
9.99999956685
9.99999630178
9.99999215873
9.99998841666
9.99998621933
9.99998606088
9.99998771867
9.99999052259
9.99999371342
9.99999669994
9.99999915428
10.0000009839
10.0000022457
10.0000030577
10.0000035443
10.000003809
10.0000039304
10.0000039638
10.0000039481
10.000003909
10.0000038623
10.0000038148
10.0000037675
10.0000037169
10.0000036594
10.0000035921
10.0000035147
10.0000034292
10.0000033393
10.0000032494
10.0000031642
10.0000030868
10.0000030208
10.0000029656
10.000002922
10.0000028906
10.0000028716
10.0000028646
10.0000028691
10.0000028842
10.0000029088
10.0000029418
10.0000029816
10.000003027
10.0000030762
10.0000031277
10.0000031799
10.0000032309
10.0000032791
10.0000033229
10.0000033607
10.0000033911
10.0000034126
10.0000034245
10.0000034247
10.0000034145
10.0000033897
10.0000033559
10.0000033023
10.0000032467
10.0000031579
10.0000030879
10.0000029501
10.0000028915
10.0000026802
10.0000027078
10.0000000007
10.0000000205
10.0000000435
10.000000063
10.0000000827
10.0000001015
10.0000001188
10.0000001339
10.0000001479
10.0000001597
10.0000001717
10.0000001808
10.0000001925
10.0000001991
10.0000002128
10.000000216
10.0000002353
10.0000002322
10.0000002643
10.0000002476
10.0000003063
10.0000002595
10.0000003731
10.0000002591
10.0000004868
10.000000224
10.00000069
10.0000001007
10.0000010692
9.99999977165
10.0000018006
9.99999898925
10.0000032364
9.99999726278
10.0000060411
9.99999370479
10.0000113366
9.99998694302
10.0000206479
9.99997544174
10.0000351714
9.99995880774
10.0000538051
9.99994033507
10.0000704881
9.99992888892
10.0000744218
9.9999351669
10.0000580877
9.99996019969
10.0000290704
9.99998827789
10.0000071141
10.0000020189
10.0000008602
10.0000035215
10.0000011941
10.0000017656
10.0000021231
10.000003657
10.0000015924
9.99998948326
9.99996291014
9.99992440337
9.99988343655
9.99985162394
9.99983699279
9.99984121475
9.9998604028
9.99988792732
9.99991718603
9.99994341056
9.99996422704
9.99997925764
9.99998931344
9.99999563701
9.99999941671
10.000001574
10.0000027328
10.0000032764
10.0000034296
10.0000033314
10.0000030827
10.0000027674
10.0000024546
10.0000021948
10.0000020152
10.0000019215
10.0000019027
10.0000019391
10.0000020089
10.0000020931
10.0000021781
10.000002256
10.0000023239
10.0000023824
10.0000024331
10.0000024782
10.0000025214
10.0000025658
10.0000026133
10.0000026652
10.0000027218
10.0000027828
10.0000028471
10.0000029137
10.0000029809
10.0000030473
10.000003111
10.0000031706
10.0000032243
10.0000032708
10.0000033086
10.0000033366
10.0000033536
10.0000033593
10.0000033521
10.0000033332
10.0000032996
10.0000032562
10.0000031946
10.0000031294
10.0000030357
10.0000029567
10.0000028211
10.0000027509
10.0000025557
10.0000025563
9.99999999516
10.000000019
10.0000000411
10.0000000685
10.0000000974
10.0000001242
10.0000001486
10.0000001697
10.0000001892
10.0000002059
10.0000002226
10.000000236
10.0000002519
10.0000002626
10.0000002801
10.0000002878
10.00000031
10.000000313
10.0000003453
10.0000003389
10.0000003914
10.000000365
10.0000004572
10.0000003876
10.0000005576
10.000000394
10.0000007211
10.0000003523
10.0000010054
10.0000001852
10.0000015346
9.99999971196
10.0000025855
9.99999851871
10.0000047727
9.99999569526
10.0000094026
9.99998939035
10.0000189805
9.99997632971
10.0000374781
9.99995211507
10.0000689769
9.99991424756
10.0001124854
9.99986949214
10.0001534427
9.99984085584
10.0001625315
9.99985801976
10.0001190641
9.99992218768
10.0000477979
9.99998508873
10.0000049403
10.0000067169
9.99999581392
10.0000064163
10.0000103146
10.0000038007
9.99993661455
9.9997713925
9.99950194105
9.99917543458
9.99887366645
9.99867393354
9.99861673649
9.99869704048
9.99887707394
9.99910659024
9.99933932506
9.99954318868
9.99970300987
9.99981745369
9.99989340873
9.99994072205
9.99996875375
9.99998484172
9.99999406209
9.9999995784
10.0000031518
10.0000056195
10.0000072952
10.0000082631
10.0000085651
10.0000082863
10.0000075695
10.0000065884
10.0000055133
10.0000044826
10.0000035901
10.000002884
10.0000023756
10.0000020502
10.0000018786
10.0000018266
10.0000018606
10.0000019511
10.000002074
10.0000022125
10.0000023549
10.0000024938
10.0000026248
10.0000027458
10.0000028557
10.0000029544
10.0000030421
10.0000031189
10.0000031852
10.0000032409
10.000003286
10.0000033201
10.0000033433
10.0000033547
10.0000033548
10.0000033425
10.0000033186
10.0000032821
10.0000032342
10.0000031746
10.0000031024
10.0000030229
10.0000029242
10.0000028317
10.0000026993
10.0000026129
10.000002433
10.0000024042
10.0000000022
10.0000000364
10.0000000729
10.0000001037
10.0000001333
10.0000001612
10.0000001874
10.0000002112
10.0000002339
10.000000254
10.0000002743
10.0000002916
10.000000311
10.0000003262
10.0000003464
10.0000003596
10.0000003831
10.0000003939
10.0000004241
10.0000004307
10.0000004735
10.0000004718
10.0000005372
10.0000005178
10.0000006238
10.0000005664
10.0000007472
10.0000006082
10.0000009321
10.0000006163
10.0000012296
10.0000005197
10.0000017586
10.0000001309
10.0000028248
9.99999894839
10.0000052388
9.99999565175
10.0000110917
9.99998697271
10.0000252835
9.9999658556
10.0000573405
9.99992047748
10.0001201302
9.99983987843
10.0002176227
9.99973407152
10.0003185574
9.99965973693
10.0003442066
9.99970206305
10.0002314579
9.99986449273
10.0000654593
9.9999857653
9.99999138616
10.0000569175
10.0000043271
9.99972982757
9.99890755204
9.9974425796
9.99545330864
9.99334785735
9.99162866383
9.99067852051
9.99063331993
9.99138085385
9.99266462555
9.99418976804
9.99569680997
9.99700748687
9.99803746619
9.99878024685
9.99927732793
9.99958883765
9.99977288324
9.99987564491
9.99992968408
9.99995633202
9.99996892586
9.99997541259
9.99998012208
9.9999849883
9.99999046648
9.99999624403
10.0000017511
10.0000064737
10.0000100953
10.0000125196
10.0000138254
10.0000142001
10.0000138756
10.0000130816
10.0000120173
10.000010839
10.0000096589
10.0000085504
10.0000075543
10.000006689
10.0000059576
10.0000053535
10.0000048643
10.000004475
10.0000041704
10.0000039355
10.000003757
10.0000036226
10.0000035226
10.0000034472
10.0000033902
10.0000033439
10.0000033053
10.0000032672
10.0000032305
10.0000031866
10.0000031416
10.0000030833
10.0000030242
10.0000029466
10.0000028707
10.0000027721
10.000002676
10.0000025583
10.0000024351
10.0000023104
10.0000021472
10.0000020554
9.99999999694
10.0000000356
10.0000000718
10.0000001106
10.0000001492
10.0000001851
10.0000002183
10.0000002485
10.0000002769
10.0000003026
10.0000003277
10.0000003503
10.0000003738
10.0000003943
10.0000004178
10.000000437
10.0000004623
10.0000004808
10.0000005102
10.0000005283
10.0000005651
10.0000005822
10.0000006315
10.0000006455
10.0000007153
10.0000007205
10.0000008243
10.0000008081
10.000000969
10.0000009053
10.0000011641
10.000001002
10.0000014315
10.0000010731
10.0000018148
10.0000010435
10.0000024537
10.000000623
10.0000039344
9.99999861186
10.0000085933
9.99999062077
10.0000242252
9.9999636246
10.0000710789
9.99988884367
10.0001855881
9.99972754144
10.0003968336
9.99947956936
10.0006514084
9.99927507868
10.0007313208
9.99939359593
10.0004050651
9.99978597649
10.0001719358
10.0001201315
9.99899476523
9.995907117
9.9895326351
9.98024005944
9.96919896255
9.95878062944
9.95123728147
9.94795150089
9.94911290271
9.95387181319
9.96093509877
9.96896535586
9.97680911477
9.98365895477
9.98911313218
9.99311925196
9.99585735561
9.99761453414
9.99868460506
9.99930962667
9.99966176285
9.99985140188
9.99994525027
9.99998327685
9.99999022169
9.99998194118
9.9999685287
9.99995593937
9.99994710443
9.99994288044
9.9999428754
9.99994609836
9.99995140922
9.99995778003
9.99996441319
9.99997076323
9.99997650791
9.99998149672
9.99998569907
9.99998915753
9.99999195551
9.99999418916
9.99999595706
9.99999734965
9.99999844552
9.99999930921
9.9999999935
10.0000005385
10.0000009767
10.0000013302
10.000001619
10.0000018523
10.0000020444
10.0000021948
10.0000023179
10.0000024036
10.0000024726
10.0000025013
10.0000025249
10.0000024989
10.0000024835
10.0000024014
10.0000023525
10.0000022096
10.0000021302
10.0000019191
10.0000018075
10.0000015242
10.0000013723
10.0000010321
10.0000000038
10.000000053
10.000000103
10.000000145
10.0000001842
10.0000002212
10.0000002563
10.0000002893
10.000000321
10.0000003507
10.0000003797
10.0000004068
10.0000004341
10.0000004595
10.0000004863
10.0000005109
10.0000005387
10.0000005637
10.0000005941
10.0000006205
10.000000656
10.0000006847
10.0000007286
10.0000007599
10.0000008176
10.0000008495
10.0000009304
10.0000009553
10.0000010777
10.0000010751
10.0000012764
10.000001198
10.0000015509
10.0000013029
10.0000019276
10.0000013778
10.0000023872
10.0000015066
10.0000027294
10.0000020384
10.0000024703
10.0000033627
10.0000020068
10.0000027153
10.0000095683
9.99998138871
10.0000613126
9.99987845991
10.0002473051
9.99957804076
10.0006933117
9.99897844595
10.0014015416
9.99835101468
10.0015305311
9.99907366334
10.0010530938
9.99721640602
9.98725287223
9.96607979631