/*--------------------------------*- C++ -*----------------------------------*\
  =========                 |
  \\      /  F ield         | OpenFOAM: The Open Source CFD Toolbox
   \\    /   O peration     | Website:  https://openfoam.org
    \\  /    A nd           | Version:  7
     \\/     M anipulation  |
\*---------------------------------------------------------------------------*/
FoamFile
{
    version     2.0;
    format      ascii;
    class       volScalarField;
    location    "960";
    object      p;
}
// * * * * * * * * * * * * * * * * * * * * * * * * * * * * * * * * * * * * * //

dimensions      [0 2 -2 0 0 0 0];

internalField   nonuniform List<scalar> 
8192
(
0.000660757650616
0.000489222434278
0.000403643609959
0.000359581240201
0.000334612378221
0.000319430409424
0.000309613880763
0.000302916448744
0.000298130496321
0.000294571895488
0.000291833528963
0.00028966188698
0.000287892552552
0.000286415017125
0.000285152685568
0.000284051055816
0.000283070466151
0.000282181489174
0.000281361912391
0.000280594701153
0.000279866587275
0.000279167067172
0.000278487673614
0.000277821434357
0.000277162459587
0.000276505619554
0.000275846284264
0.000275180106803
0.000274502836138
0.000273810148223
0.000273097486125
0.000272359903044
0.000271591902126
0.000270787269222
0.00026993889453
0.000269038581531
0.000268076841842
0.000267042677981
0.000265923357438
0.000264704186466
0.00026336829525
0.000261896453238
0.000260266938333
0.000258455491782
0.000256435394622
0.000254177706234
0.000251651702199
0.000248825541813
0.000245667176933
0.000242145490373
0.000238231619515
0.000233900392263
0.000229131778256
0.000223912253741
0.00021823598923
0.000212105800323
0.000205533835009
0.000198542000325
0.000191162135532
0.000183435920294
0.000175414455565
0.000167157396729
0.000158731483369
0.000150208370344
0.000141661841525
0.000133164735064
0.000124786068241
0.000116588811507
0.000108628566774
0.000100953122402
9.36026162096e-05
8.66099607804e-05
8.00012519115e-05
7.37960228476e-05
6.80073329633e-05
6.26417655949e-05
5.76994451581e-05
5.31741876763e-05
4.90538688014e-05
4.53210484488e-05
4.19538348805e-05
3.8926926769e-05
3.62127408589e-05
3.37825280279e-05
3.16073907756e-05
2.96591419269e-05
2.7910971427e-05
2.6337916728e-05
2.49171506077e-05
2.36281146042e-05
2.24525298229e-05
2.13743187224e-05
2.03794663679e-05
1.94558463633e-05
1.8593029478e-05
1.77820895773e-05
1.70154154012e-05
1.62865349171e-05
1.55899546798e-05
1.49210163692e-05
1.42757697699e-05
1.36508622186e-05
1.30434424845e-05
1.24510783526e-05
1.18716855667e-05
1.1303467317e-05
1.07448620664e-05
1.01944990948e-05
9.65115985856e-06
9.11374484409e-06
8.58124438916e-06
8.05271353492e-06
7.52724988969e-06
7.00397517513e-06
6.48202034161e-06
5.96051622207e-06
5.43859170929e-06
4.91538480659e-06
4.39007431771e-06
3.86194759491e-06
3.33053040423e-06
2.79582867384e-06
2.25877554687e-06
1.72207195842e-06
1.19181925404e-06
6.80868080857e-07
2.17050304074e-07
-6.06115673075e-08
0.000511829264592
0.000448330187296
0.000398673262006
0.000366064092542
0.000344187735322
0.000329049588027
0.000318268530972
0.000310378433564
0.000304453516364
0.00029989528665
0.000296307803193
0.000293423115132
0.000291055867487
0.000289075148504
0.000287386689861
0.000285921386065
0.000284627738449
0.00028346678152
0.000282408608429
0.000281429946002
0.000280512430674
0.000279641360782
0.000278804777308
0.00027799277455
0.00027719697316
0.000276410109311
0.000275625705784
0.000274837802402
0.000274040728888
0.000273228906173
0.000272396665711
0.000271538079555
0.000270646794745
0.000269715867737
0.000268737595052
0.00026770333852
0.00026660334417
0.000265426556623
0.000264160432346
0.000262790759142
0.000261301492103
0.000259674621684
0.000257890093582
0.000255925806081
0.000253757713637
0.000251360068583
0.000248705830021
0.000245767262991
0.000242516736026
0.000238927705972
0.000234975852747
0.000230640302936
0.000225904861249
0.000220759164129
0.000215199678398
0.000209230492744
0.00020286387756
0.000196120613247
0.00018903009304
0.00018163019437
0.000173966876111
0.000166093411712
0.000158069132652
0.000149957595183
0.000141824226253
0.000133733720154
0.000125747599304
0.000117922310523
0.000110308070686
0.000102948438206
9.58803815077e-05
8.91345592926e-05
8.27355923386e-05
7.67022256754e-05
7.10473786209e-05
6.57781425702e-05
6.08958117983e-05
5.63960348482e-05
5.22691510588e-05
4.85007407383e-05
4.50723729169e-05
4.19624989073e-05
3.91474158396e-05
3.66022205787e-05
3.43016833807e-05
3.2220991998e-05
3.03363390285e-05
2.86253478743e-05
2.70673476505e-05
2.5643518654e-05
2.43369333822e-05
2.31325196029e-05
2.20169685163e-05
2.09786084676e-05
2.00072594274e-05
1.90940806064e-05
1.82314190477e-05
1.74126652946e-05
1.66321190003e-05
1.58848667661e-05
1.51666723214e-05
1.44738793957e-05
1.38033261383e-05
1.31522706414e-05
1.25183260111e-05
1.18994043494e-05
1.12936681004e-05
1.06994882186e-05
1.01154078158e-05
9.54011097718e-06
8.97239572206e-06
8.41115115383e-06
7.8553382508e-06
7.30397493746e-06
6.75612573623e-06
6.21089782604e-06
5.66744559908e-06
5.12498823239e-06
4.58284656808e-06
4.04051041285e-06
3.49775313205e-06
2.95482182931e-06
2.41274848428e-06
1.87385920303e-06
1.34261295517e-06
8.27042274386e-07
3.40667600065e-07
-6.21196972167e-09
0.000428843630161
0.000406196808159
0.00038023725073
0.000359038814505
0.00034295866014
0.000330684821206
0.000321196180528
0.000313764220046
0.000307866511659
0.00030312373557
0.000299257645045
0.000296062334405
0.000293384138256
0.000291107381426
0.000289144202323
0.000287427246198
0.000285904389633
0.000284534906987
0.000283286663187
0.000282134040553
0.000281056392847
0.000280036880807
0.000279061584919
0.000278118821453
0.000277198607692
0.000276292238146
0.000275391940508
0.000274490592438
0.000273581483439
0.000272658107905
0.000271713979606
0.000270742460925
0.000269736600465
0.000268688975158
0.000267591533089
0.000266435435664
0.000265210897974
0.000263907029042
0.000262511674453
0.000261011267675
0.000259390698203
0.00025763320966
0.000255720343839
0.000253631952295
0.000251346299452
0.000248840284793
0.000246089809432
0.000243070308407
0.000239757457057
0.000236128043574
0.000232160975336
0.000227838364597
0.000223146618722
0.00021807745525
0.000212628769244
0.000206805305739
0.000200619117896
0.00019408981804
0.000187244636345
0.000180118294804
0.00017275267107
0.000165196174939
0.000157502700892
0.000149730030785
0.000141937698489
0.00013418457708
0.000126526617183
0.000119015111002
0.000111695693778
0.000104608044839
9.77860290526e-05
9.12579835152e-05
8.50469469995e-05
7.9170762519e-05
7.3642072436e-05
6.84682719008e-05
6.36515009e-05
5.9188755344e-05
5.50721751151e-05
5.12895333898e-05
4.78249091043e-05
4.46594921476e-05
4.17724493814e-05
3.91417784977e-05
3.67450863154e-05
3.45602493888e-05
3.25659347836e-05
3.07419793516e-05
2.90696379097e-05
2.75317202718e-05
2.61126387546e-05
2.4798389036e-05
2.35764834661e-05
2.24358541179e-05
2.13667379424e-05
2.0360554563e-05
1.94097830512e-05
1.85078431419e-05
1.76489832191e-05
1.68281774445e-05
1.60410321179e-05
1.52837020293e-05
1.45528158287e-05
1.38454104641e-05
1.31588733267e-05
1.24908919348e-05
1.18394097628e-05
1.12025880744e-05
1.05787725093e-05
9.96646444229e-06
9.36429611267e-06
8.77100980948e-06
8.18544048345e-06
7.60650250364e-06
7.03318053674e-06
6.46452604044e-06
5.89966044585e-06
5.33778800412e-06
4.77822148842e-06
4.22042668535e-06
3.66409314231e-06
3.10924334059e-06
2.55639723709e-06
2.00681848689e-06
1.46287694785e-06
9.28489269946e-07
4.0881237783e-07
8.84141747064e-09
0.000384241584772
0.000375882394178
0.0003617239193
0.000347966475072
0.000336571117893
0.000327325507623
0.000319776097765
0.000313554257731
0.00030838169636
0.000304045810267
0.000300380845153
0.000297255747458
0.000294566064856
0.000292228156193
0.000290174817677
0.000288351875723
0.000286715497069
0.000285230055897
0.00028386644092
0.000282600711239
0.000281413027768
0.0002802868017
0.00027920801305
0.000278164662235
0.000277146325117
0.000276143789478
0.00027514875055
0.000274153555629
0.000273150986739
0.000272134069009
0.000271095898342
0.000270029482858
0.000268927593133
0.000267782617718
0.000266586420979
0.000265330201679
0.000264004351422
0.000262598313841
0.000261100446581
0.000259497890748
0.000257776454615
0.000255920522159
0.000253913000327
0.000251735323675
0.000249367538543
0.000246788492544
0.000243976155148
0.000240908092021
0.000237562105417
0.000233917036549
0.000229953701957
0.000225655910829
0.000221011488203
0.000216013220893
0.00021065965179
0.000204955676004
0.000198912926958
0.000192549970887
0.000185892339942
0.000178972428274
0.000171829245346
0.0001645079542
0.000157059021663
0.000149536771902
0.000141997289647
0.000134495959234
0.000127085163701
0.000119812583348
0.000112720336152
0.00010584489029
9.92173995268e-05
9.28640986252e-05
8.68065505912e-05
8.10617098005e-05
7.56418549709e-05
7.05544740749e-05
6.5802189277e-05
6.13828068541e-05
5.72895541649e-05
5.35115273586e-05
5.00343285105e-05
4.68408356887e-05
4.39120297284e-05
4.12278019845e-05
3.87676811936e-05
3.65114404542e-05
3.44395674185e-05
3.25335999453e-05
3.07763410943e-05
2.91519742314e-05
2.76461000236e-05
2.62457163525e-05
2.49391586717e-05
2.3716015486e-05
2.25670297001e-05
2.14839942207e-05
2.0459647214e-05
1.9487571082e-05
1.8562097248e-05
1.7678218332e-05
1.68315080319e-05
1.60180490427e-05
1.52343685025e-05
1.44773807616e-05
1.37443366579e-05
1.3032778935e-05
1.23405029482e-05
1.16655223179e-05
1.10060387698e-05
1.03604159407e-05
9.72715655324e-06
9.10488292169e-06
8.49232042541e-06
7.88828417442e-06
7.29166884186e-06
6.70144229536e-06
6.11664354334e-06
5.53638633263e-06
4.95986990295e-06
4.38639966034e-06
3.81542147443e-06
3.24657581844e-06
2.67978054376e-06
2.11535287481e-06
1.55416121109e-06
9.97649572481e-07
4.46869260421e-07
1.14443425211e-08
0.000356572060235
0.000354640757885
0.000346877851695
0.000337718095415
0.000329465955001
0.000322458351809
0.000316538057186
0.000311499654098
0.000307174792481
0.000303433827246
0.000300175535876
0.000297318708268
0.000294796739382
0.000292554243612
0.000290544815473
0.000288729418628
0.00028707513598
0.000285554150347
0.000284142891304
0.00028282131362
0.000281572285246
0.000280381068394
0.000279234879683
0.000278122517154
0.000277034042998
0.000275960514004
0.000274893745069
0.000273826105325
0.000272750340996
0.000271659414361
0.000270546356508
0.000269404130026
0.000268225498127
0.00026700289758
0.000265728313121
0.000264393151997
0.000262988117746
0.000261503083621
0.000259926967051
0.000258247608587
0.000256451660771
0.000254524495687
0.000252450143409
0.000250211278366
0.000247789275055
0.000245164359253
0.000242315882785
0.000239222748614
0.000235864004214
0.000232219604781
0.000228271321922
0.000224003743908
0.000219405286422
0.000214469120885
0.000209193937295
0.000203584492747
0.000197651941494
0.000191413980653
0.00018489486053
0.000178125304857
0.000171142361939
0.000163989127853
0.000156714114908
0.000149369920695
0.000142011035922
0.000134691137292
0.000127460567241
0.000120364564486
0.000113442544642
0.000106728309467
0.000100250677306
9.40340514432e-05
8.80987052144e-05
8.24608022564e-05
7.71322548864e-05
7.2120524124e-05
6.74284607368e-05
6.30542843818e-05
5.89917730302e-05
5.52306885191e-05
5.17574110123e-05
4.85557147441e-05
4.56075975225e-05
4.28940801569e-05
4.03959113514e-05
3.80941411092e-05
3.59705509548e-05
3.40079489306e-05
3.21903482299e-05
3.05030532632e-05
2.89326763737e-05
2.74671060202e-05
2.6095443025e-05
2.48079179632e-05
2.35957989448e-05
2.24512965809e-05
2.1367470378e-05
2.03381395339e-05
1.93577995876e-05
1.84215459061e-05
1.75250040966e-05
1.66642674067e-05
1.58358406213e-05
1.50365901626e-05
1.42636997137e-05
1.35146309871e-05
1.27870889559e-05
1.20789912048e-05
1.1388440797e-05
1.07137024026e-05
1.00531811984e-05
9.40540439847e-06
8.76900506468e-06
8.1427082015e-06
7.52531896379e-06
6.9157132009e-06
6.31283046452e-06
5.71567013086e-06
5.1232914291e-06
4.53481906846e-06
3.94945686179e-06
3.3665131269e-06
2.78544133322e-06
2.20589199395e-06
1.62773037076e-06
1.05081294587e-06
4.73887253002e-07
1.2095994432e-08
0.000338178474305
0.000339120122002
0.00033511866795
0.000329018128984
0.000322951400995
0.000317540705994
0.00031283675524
0.000308744746177
0.000305158150762
0.000301988536348
0.000299166575647
0.000296637483351
0.000294356811762
0.000292287547333
0.000290398257372
0.000288661905361
0.000287055054495
0.000285557289735
0.000284150764748
0.000282819825081
0.000281550682875
0.000280331130635
0.00027915028713
0.000277998371079
0.000276866499321
0.000275746507106
0.000274630782219
0.00027351211661
0.000272383574273
0.000271238365904
0.000270069731166
0.000268870826185
0.000267634614045
0.000266353756467
0.00026502050497
0.000263626590326
0.000262163109434
0.000260620409584
0.000258987970884
0.000257254289235
0.000255406764049
0.000253431597962
0.000251313719388
0.000249036743859
0.000246582995592
0.000243933616889
0.000241068797252
0.000237968155001
0.000234611297298
0.000230978567567
0.000227051960227
0.000222816146088
0.0002182595166
0.000213375137088
0.000208161510106
0.000202623093658
0.000196770579409
0.00019062098577
0.000184197637804
0.000177530102705
0.000170654141864
0.00016361165937
0.000156450357427
0.000149222532354
0.000141982661214
0.000134784230449
0.000127676801812
0.00012070407505
0.00011390333555
0.000107306084421
0.000100939087177
9.48251675289e-05
8.89835223694e-05
8.34296743289e-05
7.81752346052e-05
7.3227599204e-05
6.8589688534e-05
6.4259845897e-05
6.02319835183e-05
5.64960054941e-05
5.30384710576e-05
4.98434132256e-05
4.6893207368e-05
4.41693927255e-05
4.16533772647e-05
3.93269908195e-05
3.71728813331e-05
3.51747697793e-05
3.33175893729e-05
3.1587537342e-05
2.99720649048e-05
2.84598267758e-05
2.70406062943e-05
2.57052279862e-05
2.44454654782e-05
2.32539501173e-05
2.21240834217e-05
2.10499552951e-05
2.00262687855e-05
1.90482717603e-05
1.81116952813e-05
1.72126984336e-05
1.63478190437e-05
1.55139298575e-05
1.47081995469e-05
1.39280581126e-05
1.31711660969e-05
1.24353872382e-05
1.17187640595e-05
1.1019496103e-05
1.03359203894e-05
9.6664938948e-06
9.00977771382e-06
8.36442279029e-06
7.72915699867e-06
7.10277360348e-06
6.48412109288e-06
5.87209473528e-06
5.26563034064e-06
4.66370123745e-06
4.06531962037e-06
3.46954306881e-06
2.87548308165e-06
2.28229768276e-06
1.68910192186e-06
1.0946049946e-06
4.96087354228e-07
1.32124514552e-08
0.000325262005916
0.000327440873851
0.000325688733117
0.000321706021693
0.000317245323166
0.000313024745052
0.000309234430616
0.000305869324053
0.000302872467324
0.000300183734797
0.000297752326831
0.000295537590678
0.000293506976593
0.000291633872949
0.000289895962746
0.000288274103027
0.000286751585723
0.000285313645133
0.000283947115516
0.000282640177559
0.000281382157355
0.000280163357294
0.000278974907551
0.000277808632027
0.00027665692625
0.000275512643053
0.00027436898323
0.000273219393549
0.000272057473647
0.000270876883334
0.000269671252478
0.000268434092059
0.000267158705026
0.000265838095617
0.0002644648759
0.000263031168366
0.00026152850368
0.000259947713073
0.000258278815561
0.000256510901301
0.000254632014111
0.000252629038922
0.000250487603728
0.00024819201103
0.000245725220569
0.000243068913029
0.00024020367164
0.000237109322445
0.000233765469667
0.000230152245385
0.000226251259324
0.000222046688317
0.000217526397864
0.000212682960527
0.000207514447256
0.000202024924893
0.000196224676658
0.000190130229879
0.00018376429052
0.000177155674638
0.000170339353965
0.000163356688772
0.00015625550681
0.000149089098889
0.000141913440142
0.000134783270225
0.00012774850379
0.000120852011554
0.000114129293811
0.000107609725337
0.000101318193701
9.52761637806e-05
8.95019811182e-05
8.40107101778e-05
7.88137745506e-05
7.39185273467e-05
6.93278666591e-05
6.5040039317e-05
6.10487465294e-05
5.73435851663e-05
5.39107735574e-05
5.07340516335e-05
4.77956242604e-05
4.50770323219e-05
4.25598749625e-05
4.02263507955e-05
3.80596218624e-05
3.60440260813e-05
3.41651725896e-05
3.24099539876e-05
3.07665042687e-05
2.92241245402e-05
2.77731922559e-05
2.64050644958e-05
2.51119819052e-05
2.38869771853e-05
2.27237901694e-05
2.16167903591e-05
2.05609070585e-05
1.95515668355e-05
1.85846378035e-05
1.76563801248e-05
1.67634020943e-05
1.59026211878e-05
1.50712294823e-05
1.42666629116e-05
1.34865738598e-05
1.27288066533e-05
1.19913755475e-05
1.12724448514e-05
1.05703108664e-05
9.88338535258e-06
9.21018026431e-06
8.54929354186e-06
7.89939577776e-06
7.25921765115e-06
6.6275380893e-06
6.00317323281e-06
5.38496635829e-06
4.7717788871e-06
4.16248204092e-06
3.55594659459e-06
2.95102167232e-06
2.34647594206e-06
1.74083236232e-06
1.13194957384e-06
5.16148921222e-07
1.59891726213e-08
0.000315781457544
0.000318432444155
0.000318033696393
0.000315535697017
0.000312291223102
0.000308997103364
0.0003059199655
0.000303122932846
0.000300592258104
0.000298292786423
0.000296188428989
0.000294248104751
0.000292446393694
0.000290762622807
0.000289179731542
0.000287683322702
0.000286260963555
0.000284901697201
0.000283595705514
0.000282334073442
0.000281108618178
0.00027991175879
0.000278736410752
0.000277575895776
0.000276423863276
0.000275274213859
0.000274121026564
0.000272958489438
0.0002717808344
0.000270582269673
0.000269356911683
0.000268098715431
0.000266801402297
0.000265458384198
0.000264062682919
0.000262606843482
0.00026108284034
0.0002594819755
0.000257794767947
0.000256010834692
0.000254118765124
0.0002521059929
0.000249958673441
0.000247661581024
0.000245198047458
0.000242549974581
0.000239697963405
0.00023662161086
0.000233300024262
0.000229712586984
0.000225839969991
0.000221665324989
0.000217175530202
0.00021236231751
0.000207223119392
0.000201761549911
0.00019598755223
0.00018991734077
0.000183573271772
0.000176983739179
0.000170183280483
0.000163213164627
0.000156122135381
0.000148965779475
0.000141803189406
0.000134691886208
0.000127683258241
0.000120819916183
0.000114135690761
0.000107657800639
0.000101409329735
9.54105898094e-05
8.96793168046e-05
8.4230323743e-05
7.90749921324e-05
7.42206938313e-05
6.96702523011e-05
6.54216313786e-05
6.14680026986e-05
5.77982299112e-05
5.43976962763e-05
5.12493299654e-05
4.83346603315e-05
4.56347653695e-05
4.31310254081e-05
4.08056562273e-05
3.86420379577e-05
3.662487926e-05
3.47402621641e-05
3.2975608688e-05
3.13196014431e-05
2.97620812546e-05
2.82939368255e-05
2.69069956474e-05
2.55939211706e-05
2.43481186959e-05
2.31636507444e-05
2.20351618336e-05
2.09578120143e-05
1.99272183922e-05
1.89394037096e-05
1.79907511631e-05
1.70779646123e-05
1.6198033494e-05
1.53482017543e-05
1.45259402685e-05
1.37289222105e-05
1.29550009688e-05
1.22021901828e-05
1.14686455922e-05
1.0752648354e-05
1.00525895859e-05
9.36695585099e-06
8.69431539379e-06
8.03330489712e-06
7.382616618e-06
6.74098571036e-06
6.10717758073e-06
5.47997490921e-06
4.85816355893e-06
4.24051524202e-06
3.62576164672e-06
3.01254706555e-06
2.39933004299e-06
1.78417323178e-06
1.16432068216e-06
5.35474233606e-07
2.1110470339e-08
0.000308573218865
0.000311340135733
0.000311754587209
0.00031030125319
0.000307988455881
0.000305434587485
0.000302934207856
0.000300595846456
0.000298441066371
0.000296457399376
0.000294622453441
0.000292913506926
0.00029131061779
0.000289797121241
0.000288359227452
0.000286985416302
0.000285665880077
0.000284392080989
0.000283156421775
0.000281952006906
0.000280772470053
0.000279611847381
0.000278464481445
0.000277324944769
0.000276187979316
0.000275048437017
0.000273901225559
0.000272741258755
0.000271563408208
0.000270362452402
0.000269133023914
0.000267869553714
0.00026656621155
0.000265216841256
0.000263814889785
0.000262353328542
0.000260824565563
0.000259220346966
0.000257531646349
0.000255748541169
0.000253860076413
0.000251854117926
0.000249717201694
0.00024743439159
0.000244989167506
0.000242363378512
0.000239537310737
0.000236489933198
0.000233199389608
0.00022964378941
0.00022580230679
0.000221656520812
0.000217191840408
0.000212398792807
0.00020727395866
0.000201820436998
0.000196047893948
0.000189972392138
0.000183616182341
0.000177007520632
0.000170180745703
0.00016317727912
0.000156047443201
0.000148850559982
0.000141650760505
0.000134510122259
0.000127482727144
0.000120611391065
0.000113928126758
0.000107457733387
0.000101221484276
9.52387654274e-05
8.95269756213e-05
8.41008979043e-05
7.89720323747e-05
7.41478505899e-05
6.96310616674e-05
6.54191576994e-05
6.1504445892e-05
5.78746070635e-05
5.45136737253e-05
5.14032326798e-05
4.85236374483e-05
4.58550591861e-05
4.33782826225e-05
4.10752297329e-05
3.89292457515e-05
3.69252051135e-05
3.50494965072e-05
3.32899362318e-05
3.16356457736e-05
3.00769170905e-05
2.86050796433e-05
2.72123765261e-05
2.58918529549e-05
2.46372578377e-05
2.3442957933e-05
2.23038634009e-05
2.12153634294e-05
2.01732705304e-05
1.91737722909e-05
1.82133894199e-05
1.72889391651e-05
1.63975032301e-05
1.55363995284e-05
1.47031571335e-05
1.38954939545e-05
1.31112966583e-05
1.2348602498e-05
1.16055826751e-05
1.08805269785e-05
1.01718293963e-05
9.47797449021e-06
8.79752426512e-06
8.12910533623e-06
7.47139610961e-06
6.82311369192e-06
6.18300002109e-06
5.54980639762e-06
4.92227470952e-06
4.29911191893e-06
3.67895058623e-06
3.06028078689e-06
2.44132501748e-06
1.81980723921e-06
1.19255163671e-06
5.54881225904e-07
2.90203128548e-08
0.00030294159946
0.000305662058394
0.000306560480983
0.000305842282146
0.000304245008111
0.000302289570888
0.00030026647251
0.000298309472647
0.000296466300149
0.000294743914371
0.000293132693282
0.000291617944975
0.000290184808603
0.000288820004321
0.000287512201303
0.000286251848106
0.000285030843514
0.000283842203138
0.000282679775386
0.000281538017043
0.000280411822119
0.000279296392939
0.000278187142624
0.000277079619682
0.000275969451321
0.000274852290361
0.000273723766427
0.000272579447073
0.000271414797656
0.000270225139942
0.000269005608609
0.000267751104431
0.00026645624296
0.000265115297368
0.000263722134007
0.000262270138987
0.000260752133845
0.000259160278122
0.000257485956527
0.000255719648505
0.000253850778735
0.000251867548844
0.000249756754271
0.000247503596715
0.000245091513229
0.000242502058697
0.00023971489859
0.000236707990001
0.000233458041851
0.000229941335127
0.000226134934127
0.000222018223085
0.000217574578291
0.00021279288601
0.000207668608849
0.000202204233233
0.000196409179027
0.000190299481253
0.000183897506987
0.000177231651704
0.000170336191974
0.00016325267233
0.000156033489387
0.0001487434444
0.0001414541922
0.000134234578236
0.000127142832244
0.000120222372677
0.000113502899401
0.000107006236313
0.000100751794583
9.47583439294e-05
8.90432622773e-05
8.36215161524e-05
7.85048735192e-05
7.37009806019e-05
6.92123731621e-05
6.50358397831e-05
6.116242515e-05
5.75781052384e-05
5.4264978175e-05
5.12027086131e-05
4.83699464579e-05
4.57455088158e-05
4.33092243443e-05
4.10424395119e-05
3.89282473494e-05
3.69515202387e-05
3.50988224958e-05
3.33582610431e-05
3.17193133482e-05
3.01726560416e-05
2.87100063964e-05
2.73239817452e-05
2.60079778066e-05
2.47560648014e-05
2.3562899338e-05
2.24236498188e-05
2.13339332161e-05
2.028976131e-05
1.9287494761e-05
1.83238036547e-05
1.73956334002e-05
1.65001750549e-05
1.56348393211e-05
1.47972335836e-05
1.39851414707e-05
1.31965044971e-05
1.2429405418e-05
1.16820529715e-05
1.09527677221e-05
1.02399687474e-05
9.54216091826e-06
8.85792252487e-06
8.18589297227e-06
7.52476020488e-06
6.8732473794e-06
6.23009802788e-06
5.59405840289e-06
4.9638546371e-06
4.33816031943e-06
3.71554632325e-06
3.09439809005e-06
2.47277521066e-06
1.84817607503e-06
1.21716811334e-06
5.74879552287e-07
4.00058647661e-08
0.000298451962871
0.000301055703378
0.000302235293009
0.000302033503229
0.000300985056279
0.000299514985431
0.000297891550524
0.000296258137582
0.000294679750546
0.000293178744016
0.00029175678648
0.000290406801277
0.000289118899858
0.000287883063007
0.000286690181438
0.000285532322967
0.000284402667858
0.000283295326151
0.000282205134077
0.000281127468979
0.00028005809495
0.00027899303935
0.000277928495836
0.000276860748831
0.000275786115298
0.000274700893761
0.000273601315578
0.000272483510226
0.000271343468512
0.000270177005716
0.000268979722958
0.000267746965352
0.000266473775522
0.000265154840917
0.000263784433206
0.000262356337671
0.000260863770202
0.000259299278936
0.000257654627229
0.000255920654283
0.000254087109983
0.000252142461667
0.000250073673747
0.000247865967563
0.000245502580566
0.000242964562593
0.000240230673354
0.000237277476022
0.000234079746887
0.000230611320056
0.000226846433046
0.000222761516812
0.000218337201029
0.000213560153044
0.000208424336886
0.00020293144222
0.000197090593007
0.000190917833207
0.00018443582287
0.000177673418803
0.00017066491744
0.000163451541952
0.000156087957861
0.00014864675296
0.0001412105611
0.000133857874382
0.000126652956464
0.000119640218483
0.000112846042694
0.000106288324578
9.99845885409e-05
9.39534735526e-05
8.8212690916e-05
8.27775362073e-05
7.76601331407e-05
7.28683323946e-05
6.84043731281e-05
6.42640124773e-05
6.04365150136e-05
5.69055028767e-05
5.36504401092e-05
5.06483993622e-05
4.78757455803e-05
4.53094756689e-05
4.29281102167e-05
4.07121648576e-05
3.86442989276e-05
3.67092538564e-05
3.48936767127e-05
3.31858965385e-05
3.15756951265e-05
3.00540943013e-05
2.86131690794e-05
2.72458886659e-05
2.59459835513e-05
2.47078353749e-05
2.35263859163e-05
2.23970617589e-05
2.13157116813e-05
2.02785542832e-05
1.92821338789e-05
1.83232830344e-05
1.73990905052e-05
1.65068735383e-05
1.5644153755e-05
1.48086359404e-05
1.39981892318e-05
1.32108302497e-05
1.24447078232e-05
1.16980889781e-05
1.09693459277e-05
1.02569437909e-05
9.55942880304e-06
8.8754167305e-06
8.2035811844e-06
7.54264138725e-06
6.89134877985e-06
6.24847145536e-06
5.61277477581e-06
4.98299531346e-06
4.3578032189e-06
3.73574459365e-06
3.11514999032e-06
2.49398779579e-06
1.86963495677e-06
1.23854109925e-06
5.95790611709e-07
5.42307144772e-08
0.000294821219514
0.000297281482497
0.000298615852762
0.000298775344171
0.000298146670727
0.000297069880752
0.000295782585876
0.000294426957908
0.000293077654856
0.000291768239778
0.000290509747163
0.000289301989946
0.000288139852089
0.00028701654253
0.000285925143943
0.000284859257574
0.00028381319515
0.000282781960492
0.000281761146108
0.000280746806304
0.000279735334722
0.000278723357081
0.000277707641438
0.000276685026794
0.000275652364003
0.000274606464992
0.000273544055378
0.000272461739552
0.000271355965273
0.000270222988614
0.000269058837538
0.000267859272501
0.000266619742455
0.000265335334489
0.000264000715084
0.000262610060539
0.000261156973588
0.000259634382518
0.000258034418278
0.000256348264302
0.000254565973261
0.000252676245414
0.000250666165535
0.000248520901524
0.000246223380033
0.000243753976125
0.000241090287201
0.000238207104734
0.000235076739625
0.000231669872409
0.000227957047975
0.000223910782303
0.000219508009266
0.000214732364321
0.00020957572596
0.000204038630414
0.000198129683349
0.000191864769499
0.000185266883642
0.000178365777233
0.000171195909932
0.000163797059278
0.000156225723406
0.000148565614538
0.000140915462599
0.000133367213283
0.000125993819432
0.000118841216871
0.000111930639047
0.000105274519357
9.88886392117e-05
9.27923074667e-05
8.70038931919e-05
8.15389576621e-05
7.64099121943e-05
7.16247311443e-05
6.71850999666e-05
6.30852465258e-05
5.93119485395e-05
5.58456371144e-05
5.26622775425e-05
4.97355587153e-05
4.70389091497e-05
4.45470169702e-05
4.22367558613e-05
4.00875904289e-05
3.8081610584e-05
3.62033466409e-05
3.44394827091e-05
3.27785448318e-05
3.12106061469e-05
2.97270280489e-05
2.83202424248e-05
2.69835729096e-05
2.57110900548e-05
2.44974945787e-05
2.33380232055e-05
2.22283723979e-05
2.1164636148e-05
2.01432548002e-05
1.91609725375e-05
1.8214801711e-05
1.73019925962e-05
1.64200074891e-05
1.55664982853e-05
1.47392868763e-05
1.3936347822e-05
1.31557928726e-05
1.23958569748e-05
1.16548854615e-05
1.09313221503e-05
1.02236980999e-05
9.53062076057e-06
8.85076323302e-06
8.18285326503e-06
7.5256614893e-06
6.87798814866e-06
6.23864714136e-06
5.60644548752e-06
4.98015511929e-06
4.35847191852e-06
3.73995387776e-06
3.12292593824e-06
2.50533413028e-06
1.88452881482e-06
1.2569621433e-06
6.17805094269e-07
7.17497141426e-08
0.000291857484608
0.000294167619654
0.00029557701352
0.000295987253118
0.000295678432251
0.000294919382256
0.000293914830227
0.000292798941805
0.000291650074209
0.000290509143985
0.000289394454776
0.000288311728564
0.00028726024371
0.000286236336227
0.000285235276314
0.000284252202301
0.000283282533058
0.000282322105305
0.000281367174757
0.000280414356681
0.000279460545409
0.000278502832193
0.000277538429767
0.000276564609643
0.000275578647159
0.000274577770179
0.00027355911563
0.00027251969392
0.000271456354318
0.000270365750801
0.000269244306739
0.000268088176773
0.00026689320415
0.000265654871569
0.000264368243271
0.000263027895529
0.000261627832022
0.000260161379537
0.000258621058265
0.000256998419562
0.000255283842738
0.000253466281784
0.000251532954087
0.000249468968143
0.000247256899436
0.000244876347645
0.000242303548936
0.000239511175641
0.00023646852208
0.000233142317695
0.000229498368819
0.000225504046131
0.00022113130479
0.000216359575782
0.000211177718853
0.000205584440783
0.000199587259989
0.000193201277058
0.000186449468852
0.000179363076899
0.000171977220709
0.000164327948881
0.000156471757281
0.000148508785757
0.000140561912525
0.000132741476054
0.000125133201427
0.000117785615504
0.000110711505618
0.000103915405743
9.74119378656e-05
9.12223813226e-05
8.53658251178e-05
7.98575186229e-05
7.47097675959e-05
6.99303724133e-05
6.55199667125e-05
6.14704823328e-05
5.77652345319e-05
5.43803767992e-05
5.12873047324e-05
4.84553910808e-05
4.58544086204e-05
4.3456242452e-05
4.12358175192e-05
3.91713873983e-05
3.72444057304e-05
3.54391801212e-05
3.3742449683e-05
3.21429692129e-05
3.06311399584e-05
2.91987001814e-05
2.7838474515e-05
2.65441748018e-05
2.5310243315e-05
2.4131729609e-05
2.30041935138e-05
2.19236282066e-05
2.08863986542e-05
1.9889191804e-05
1.89289758165e-05
1.80029662739e-05
1.71085978378e-05