/*--------------------------------*- C++ -*----------------------------------*\
  =========                 |
  \\      /  F ield         | OpenFOAM: The Open Source CFD Toolbox
   \\    /   O peration     | Website:  https://openfoam.org
    \\  /    A nd           | Version:  7
     \\/     M anipulation  |
\*---------------------------------------------------------------------------*/
FoamFile
{
    version     2.0;
    format      ascii;
    class       surfaceScalarField;
    location    "960";
    object      phi;
}
// * * * * * * * * * * * * * * * * * * * * * * * * * * * * * * * * * * * * * //

dimensions      [0 3 -1 0 0 0 0];

internalField   nonuniform List<scalar> 
16192
(
6.92894922082e-10
2.44605077918e-10
4.93506668107e-10
1.99388259634e-10
3.64761029664e-10
1.28745643267e-10
2.82192834234e-10
8.25681994125e-11
2.2760320573e-10
5.45896319994e-11
1.90044382285e-10
3.75588267658e-11
1.63169665099e-10
2.68747204755e-11
1.4326301837e-10
1.99066500635e-11
1.28087613215e-10
1.51754085284e-11
1.16249243723e-10
1.18383729328e-11
1.0684637389e-10
9.40287331274e-12
9.92749101014e-11
7.57146734061e-12
9.3116584372e-11
6.15832931603e-12
8.80732409915e-11
5.04334703869e-12
8.39269225797e-11
4.14632209431e-12
8.05148598091e-11
3.41206651745e-12
7.77133235328e-11
2.80154002935e-12
7.54269038316e-11
2.28642350297e-12
7.35812068456e-11
1.84570076743e-12
7.2117763795e-11
1.46344685706e-12
7.09904072515e-11
1.12736029555e-12
7.01626447679e-11
8.27766230908e-13
6.96057239324e-11
5.56924490667e-13
6.9297187721e-11
3.08539830408e-13
6.92197823656e-11
7.74088462812e-14
6.93606243387e-11
-1.40838544808e-13
6.97105576624e-11
-3.49930050444e-13
7.02636546922e-11
-5.53093831986e-13
7.10168253155e-11
-7.53167589002e-13
7.19695080423e-11
-9.52679757803e-13
7.31234196261e-11
-1.15390875814e-12
7.4482346257e-11
-1.35892382685e-12
7.6051958668e-11
-1.56960969177e-12
7.78396369454e-11
-1.78767549393e-12
7.98542876764e-11
-2.01464792762e-12
8.21061378607e-11
-2.25184718259e-12
8.46064853091e-11
-2.50034427297e-12
8.73673862701e-11
-2.76089740489e-12
9.04012559515e-11
-3.03386575181e-12
9.37203595646e-11
-3.31909907939e-12
9.73361686194e-11
-3.61580391393e-12
1.01258563676e-10
-3.92238906309e-12
1.054948687e-10
-4.23629817532e-12
1.10048718633e-10
-4.55384198269e-12
1.14918777979e-10
-4.87005030777e-12
1.20097358308e-10
-5.17856996772e-12
1.2556901036e-10
-5.47164041877e-12
1.31309202273e-10
-5.74017880518e-12
1.37283217019e-10
-5.97400027403e-12
1.4344541611e-10
-6.16218310951e-12
1.49738998793e-10
-6.29356539799e-12
1.56096349328e-10
-6.35733189816e-12
1.62439997274e-10
-6.34362830184e-12
1.68684149152e-10
-6.24413132062e-12
1.74736687243e-10
-6.05251715172e-12
1.80501511093e-10
-5.76480279872e-12
1.85881109215e-10
-5.37957768551e-12
1.90779305278e-10
-4.89817666032e-12
1.9510418181e-10
-4.32485902176e-12
1.98771233116e-10
-3.66703614985e-12
2.0170677181e-10
-2.93552674219e-12
2.03851486169e-10
-2.14470596801e-12
2.05163790341e-10
-1.31230002302e-12
2.05622356702e-10
-4.58566551694e-13
2.05227149762e-10
3.95202054936e-13
2.03998567764e-10
1.22857271284e-12
2.01974833466e-10
2.02372066092e-12
1.9920826388e-10
2.76655224489e-12
1.95761302707e-10
3.44694043092e-12
1.91703098972e-10
4.05818036925e-12
1.87107020091e-10
4.59605324126e-12
1.82049066243e-10
5.05792669602e-12
1.76606876745e-10
5.44216116633e-12
1.70858959944e-10
5.7478880087e-12
1.6488384422e-10
5.97508676664e-12
1.5875898057e-10
6.12483516019e-12
1.52559355905e-10
6.19959684865e-12
1.46355899768e-10
6.20342948726e-12
1.40213845439e-10
6.14202891791e-12
1.34191246577e-10
6.02257502478e-12
1.28337829053e-10
5.85339519928e-12
1.22694305336e-10
5.64350310079e-12
1.17292196352e-10
5.40208990991e-12
1.12154134147e-10
5.13804476468e-12
1.07294556304e-10
4.85956179823e-12
1.0272067596e-10
4.57386572142e-12
9.84336012708e-11
4.28706120893e-12
9.44294961411e-11
4.00409278279e-12
9.07006945445e-11
3.72879009485e-12
8.72367127591e-11
3.46397111277e-12
8.40251255375e-11
3.21157710313e-12
8.10522967543e-11
2.97281921826e-12
7.83039658348e-11
2.74832166162e-12
7.5765704215e-11
2.53825269592e-12
7.3423257009e-11
2.34243840582e-12
7.12627903207e-11
2.16045806964e-12
6.92710604095e-11
1.99172129982e-12
6.74355228618e-11
1.83552902957e-12
6.57443940666e-11
1.69112022764e-12
6.41866784823e-11
1.55770707547e-12
6.27521694089e-11
1.4345005051e-12
6.1431432443e-11
1.32072846126e-12
6.02157756391e-11
1.21564826284e-12
5.90972123533e-11
1.11855483937e-12
5.80684182347e-11
1.02878567892e-12
5.71226861641e-11
9.4572377119e-13
5.6253878928e-11
8.6879899659e-13
5.54563819527e-11
7.97488928335e-13
5.47250547276e-11
7.31319294574e-13
5.40551821093e-11
6.69864933174e-13
5.34424231276e-11
6.12751468542e-13
5.28827573004e-11
5.59658610459e-13
5.23724247852e-11
5.10325523328e-13
5.19078586e-11
4.64559537922e-13
5.14856029285e-11
4.22249299035e-13
5.11022123129e-11
3.83384633868e-13
5.075412076e-11
3.48085894621e-13
5.04374677839e-11
3.16647755594e-13
5.01478581855e-11
2.89604754063e-13
4.98800225631e-11
2.67831271299e-13
4.96273220933e-11
2.52696560095e-13
4.93810086194e-11
2.46310127037e-13
4.91290918453e-11
2.5191393475e-13
4.88545898494e-11
2.7449974985e-13
4.85328951543e-11
3.21692904657e-13
4.8128427182e-11
4.04466628127e-13
4.75935846421e-11
5.34841700301e-13
6.86295373339e-13
9.53379909094e-10
2.28725175225e-10
8.59595525393e-10
2.93172652665e-10
7.45064670272e-10
2.43276506228e-10
6.41940892462e-10
1.85691983722e-10
5.56850893539e-10
1.39679636839e-10
4.88588092776e-10
1.05821633296e-10
4.34125190142e-10
8.13376288951e-11
3.90504497723e-10
6.35273483554e-11
3.55308377336e-10
5.03715348769e-11
3.26677190806e-10
4.04695655349e-11
3.03209413644e-10
3.28706566429e-11
2.83851764491e-10
2.69291227746e-11
2.67808377911e-10
2.22017222665e-11
2.54472387492e-10
1.83793439316e-11
2.43376212708e-10
1.52425034221e-11
2.34155866428e-10
1.26324194212e-11
2.26525332778e-10
1.04320803348e-11
2.20258064389e-10
8.55369858597e-12
2.15173497845e-10
6.93027398434e-12
2.11127122096e-10
5.50982926021e-12
2.08003081827e-10
4.2514071324e-12
2.05708608867e-10
3.122245673e-12
2.04169785469e-10
2.09575421381e-12
2.03328290023e-10
1.15004145192e-12
2.0313887405e-10
2.66830774499e-13
2.03567389898e-10
-5.69348635973e-13
2.04589233134e-10
-1.3717677889e-12
2.06188101487e-10
-2.15195690203e-12
2.08354994254e-10
-2.92005532963e-12
2.11087391218e-10
-3.68507187534e-12
2.14388559427e-10
-4.45507231194e-12
2.18266945314e-10
-5.23730513419e-12
2.22735611297e-10
-6.03827114148e-12
2.2781167959e-10
-6.86373913853e-12
2.3351574325e-10
-7.71870675153e-12
2.39871204917e-10
-8.60730361357e-12
2.46903498733e-10
-9.53263233879e-12
2.54639150601e-10
-1.04965427493e-11
2.63104627702e-10
-1.14993354045e-11
2.72324931277e-10
-1.25393939874e-11
2.8232188884e-10
-1.36127514191e-11
2.93112115806e-10
-1.47126042706e-11
3.04704633947e-10
-1.58288026856e-11
3.17098168117e-10
-1.69473603491e-11
3.30278183571e-10
-1.80500476465e-11
3.44213784124e-10
-1.91141498355e-11
3.58854650384e-10
-2.01124833584e-11
3.74128260027e-10
-2.10137623245e-11
3.89937672878e-10
-2.17833842632e-11
4.06160178957e-10
-2.23846575776e-11
4.22647071092e-10
-2.27804234474e-11
4.39224723667e-10
-2.29349481521e-11
4.55697032017e-10
-2.28158986703e-11
4.71849133664e-10
-2.23961938978e-11
4.87452215976e-10
-2.16555602497e-11
5.02269163662e-10
-2.05817120497e-11
5.16060813065e-10
-1.91711906977e-11
5.28592659219e-10
-1.74299896243e-11
5.39641948796e-10
-1.53741199957e-11
5.490051469e-10
-1.30302113633e-11
5.56505702913e-10
-1.04360667918e-11
5.6200180935e-10
-7.64080415747e-12
5.65393428812e-10
-4.70391968841e-12
5.6662745554e-10
-1.69260210433e-12
5.65699807185e-10
1.32283295117e-12
5.62653769736e-10
4.27458466038e-12
5.57574873178e-10
7.10258435435e-12
5.50583455939e-10
9.75793037062e-12
5.41826533837e-10
1.22038181529e-11
5.31470421047e-10
1.44142447313e-11
5.19694879969e-10
1.63715428078e-11
5.06688831234e-10
1.80639219834e-11
4.92647157192e-10
1.94837807052e-11
4.77767990017e-10
2.06270006615e-11
4.62249966319e-10
2.14930566593e-11
4.46289140168e-10
2.20856090545e-11
4.30075477154e-10
2.24132096479e-11
4.13789073403e-10
2.24897856146e-11
3.97596398224e-10
2.23346592758e-11
3.81646933613e-10
2.19719978889e-11
3.66070554532e-10
2.14297355765e-11
3.50975894787e-10
2.07381272402e-11
3.36449795145e-10
1.99281568378e-11
3.2255778825e-10
1.90300217441e-11
3.0934545612e-10
1.8071866496e-11
2.9684043158e-10
1.70788651346e-11
2.85054791859e-10
1.60726777454e-11
2.73987614685e-10
1.50712485051e-11
2.63627506381e-10
1.40888783188e-11
2.5395496673e-10
1.31364918627e-11
2.44944503129e-10
1.22220226584e-11
2.3656645297e-10
1.1350852042e-11
2.28788503165e-10
1.05262545779e-11
2.21576921462e-10
9.74981787208e-12
2.14897524962e-10
9.02181854318e-12
2.08716421018e-10
8.34154579088e-12
2.03000554676e-10
7.70757142426e-12
1.9771809838e-10
7.11796914167e-12
1.92838713702e-10
6.57048866677e-12
1.88333713639e-10
6.0626909152e-12
1.8417614698e-10
5.59205090441e-12
1.80340824943e-10
5.15603429633e-12
1.76804303814e-10
4.75215321975e-12
1.73544836757e-10
4.37800586411e-12
1.70542302514e-10
4.03130401393e-12
1.67778118973e-10
3.70989164382e-12
1.6523514499e-10
3.41175754249e-12
1.62897574703e-10
3.13504412275e-12
1.60750824588e-10
2.87805465582e-12
1.58781414597e-10
2.63926062014e-12
1.56976841017e-10
2.41731118497e-12
1.55325439725e-10
2.21104658832e-12
1.53816234677e-10
2.01951779644e-12
1.52438767138e-10
1.84201494353e-12
1.51182896824e-10
1.67810811558e-12
1.50038565966e-10
1.52770473025e-12
1.48995512286e-10
1.39112954432e-12
1.48042915955e-10
1.26923489444e-12
1.47168960913e-10
1.16355144503e-12
1.46360293171e-10
1.07649161656e-12
1.45601365014e-10
1.01161828195e-12
1.44873687532e-10
9.73982236705e-13
1.44155103368e-10
9.70493771479e-13
1.43419439264e-10
1.01016063434e-12
1.4263754572e-10
1.10358428433e-12
1.41782331196e-10
1.25967985487e-12
1.40845528416e-10
1.47164382051e-12
1.66602866414e-12
9.76216890347e-10
1.90008289697e-10
9.62986892927e-10
3.06402656277e-10
9.06133992445e-10
3.00129411774e-10
8.33826009299e-10
2.57999971396e-10
7.61057374372e-10
2.12448275998e-10
6.9423721952e-10
1.72641792333e-10
6.35433547779e-10
1.40141304858e-10
5.84748186351e-10
1.14212714104e-10
5.4149591793e-10
9.36238076931e-11
5.04753769435e-10
7.72117185385e-11
4.73599551175e-10
6.40248794814e-11
4.4720354484e-10
5.33251338022e-11
4.24853826592e-10
4.45514452695e-11
4.05953592518e-10
3.72795828677e-11
3.90008224643e-10
3.11878762003e-11
3.76609953106e-10
2.6030695949e-11
3.65423333294e-10
2.16187051422e-11
3.56172645997e-10
1.780439093e-11
3.48631409325e-10
1.44715156568e-11
3.426138296e-10
1.1527413987e-11
3.37967902723e-10
8.89733889966e-12
3.34569871578e-10
6.52028165038e-12
3.32319775019e-10
4.34585542625e-12
3.31137868816e-10
2.3319521911e-12
3.309617377e-10
4.42966187526e-13
3.31743955312e-10
-1.35156211372e-12
3.33450172003e-10
-3.07798062357e-12
3.36057541483e-10
-4.75932270255e-12
3.39553407666e-10
-6.41591810961e-12
3.43934186206e-10
-8.0658471544e-12
3.49204381879e-10
-9.72526494098e-12
3.55375690883e-10
-1.14086111356e-11
3.62466136609e-10
-1.31287139468e-11
3.70499190802e-10
-1.48967902695e-11
3.79502827601e-10
-1.67223403491e-11
3.89508458689e-10
-1.86129310852e-11
4.00549691657e-10
-2.05738612412e-11
4.12660854696e-10
-2.260770095e-11
4.25875226732e-10
-2.47137017625e-11
4.40222918673e-10
-2.6887079053e-11
4.55728356636e-10
-2.91181812246e-11
4.72407338926e-10
-3.13915767465e-11
4.90263663355e-10
-3.36851155658e-11
5.09285367511e-10
-3.59690508505e-11
5.29440677781e-10
-3.82053421177e-11
5.50673837266e-10
-4.03472910429e-11
5.72901056413e-10
-4.23396817834e-11
5.96006908514e-10
-4.41195910043e-11
6.19841541494e-10
-4.56179912847e-11
6.44219095339e-10
-4.67621828093e-11
6.68917665904e-10
-4.74789631078e-11
6.93681052531e-10
-4.76983016852e-11
7.18222361676e-10
-4.73571731856e-11
7.42229364401e-10
-4.6403160861e-11
7.65371349011e-10
-4.47975089698e-11
7.87307136253e-10
-4.25174640015e-11
8.07693930597e-10
-3.95579516728e-11
8.2619677051e-10
-3.59327990317e-11
8.42498439832e-10
-3.1675763132e-11
8.5630977169e-10
-2.6841522273e-11
8.67380217955e-10
-2.15064986504e-11
8.75508303408e-10
-1.57688823481e-11
8.80551066556e-10
-9.7466835708e-12
8.82431033905e-10
-3.57257819949e-12
8.81139139017e-10
2.61471091497e-12
8.76732676807e-10
8.68102248077e-12
8.69328639439e-10
1.45065903758e-11
8.59093952259e-10
1.99925804644e-11
8.46234715429e-10
2.5063012956e-11
8.30986322088e-10
2.96625923911e-11
8.1360543179e-10
3.37523845425e-11
7.94363816372e-10
3.73054871541e-11
7.73543493005e-10
4.03040528417e-11
7.51432420269e-10
4.27380222707e-11
7.28320160965e-10
4.46052655149e-11
7.04493166111e-10
4.59125550268e-11
6.80229605137e-10
4.66767236578e-11
6.55793934355e-10
4.69254119596e-11
6.31431585771e-10
4.66969660442e-11
6.07364250234e-10
4.60392945772e-11
5.83786189927e-10
4.50077598757e-11
5.60861888598e-10
4.36623955422e-11
5.38725159418e-10
4.2064855688e-11
5.17479650095e-10
4.0275503431e-11
4.97200533818e-10
3.83509574489e-11
4.77937091959e-10
3.63422838951e-11
4.59715863191e-10
3.4293885212e-11
4.42544059276e-10
3.22430327972e-11
4.26412994768e-10
3.02199244588e-11
4.11301346152e-10
2.82481232608e-11
3.97178115506e-10
2.63452368476e-11
3.84005233182e-10
2.45237186092e-11
3.71739773324e-10
2.27916990517e-11
3.6033579103e-10
2.11537851487e-11
3.49745806002e-10
1.96117886575e-11
3.39921972572e-10
1.81653644625e-11
3.30816976811e-10
1.68125523801e-11
3.22384705417e-10
1.55502257828e-11
3.14580724765e-10
1.43744544651e-11
3.07362608065e-10
1.32807927945e-11
3.0069014016e-10
1.22645039053e-11
2.94525428187e-10
1.13207314385e-11
2.88832938156e-10
1.04446283998e-11
2.83579476762e-10
9.63145255659e-12
2.78734130568e-10
8.87663557571e-12
2.74268174873e-10
8.17583294795e-12
2.70154958417e-10
7.52495977854e-12
2.66369770993e-10
6.92021766534e-12
2.62889695703e-10
6.35811633672e-12
2.59693448922e-10
5.83549422773e-12
2.56761206242e-10
5.34954106023e-12
2.54074414186e-10
4.89782636725e-12
2.51615582954e-10
4.47833721419e-12
2.49368057106e-10
4.08952959105e-12
2.47315756949e-10
3.73039762377e-12
2.4544288558e-10
3.40056615179e-12
2.4373359401e-10
3.1004118126e-12
2.42171602102e-10
2.83121829703e-12
2.40739777295e-10
2.59536850194e-12
2.39419691708e-10
2.3965703677e-12
2.38191209078e-10
2.24009495694e-12
2.37032222946e-10
2.13296343183e-12
2.35918796355e-10
2.08391634571e-12
2.34826203926e-10
2.10275002028e-12
2.33731802051e-10
2.19798415199e-12
2.32621311093e-10
2.37016982022e-12
2.31498973723e-10
2.59398095189e-12
2.77522735672e-12
9.71771699626e-10
1.557365938e-10
9.86712566668e-10
2.91461793515e-10
9.6826552137e-10
3.18576460879e-10
9.28050417316e-10
2.98215078333e-10
8.7792206396e-10
2.62576631789e-10
8.25402031427e-10
2.25161827202e-10
7.74639386329e-10
1.9090395233e-10
7.27666462563e-10
1.61185640327e-10
6.85296431568e-10
1.35993841229e-10
6.47680142857e-10
1.1482800988e-10
6.14631934641e-10
9.70730904102e-11
5.858133676e-10
8.21437036432e-11
5.60833432405e-10
6.95313833401e-11
5.39300951584e-10
5.88120666437e-11
5.20850192384e-10
4.96386384144e-11
5.05151797675e-10
4.17290937301e-11
4.91915905229e-10
3.48546006896e-11
4.80891302732e-10
2.88289965503e-11
4.71862739246e-10
2.3500082247e-11
4.64647537836e-10
1.87426184709e-11
4.59092105475e-10
1.44527742551e-11
4.5506863298e-10
1.05437570447e-11
4.52472110555e-10
6.94238060449e-12
4.51217696367e-10
3.58636897236e-12
4.51238428573e-10
4.22236362704e-13
4.52483249673e-10
-2.59638104755e-12
4.54915297407e-10
-5.51002644871e-12
4.58510425934e-10
-8.35444956659e-12
4.63255907266e-10
-1.11613980466e-11
4.6914926721e-10
-1.39592059344e-11
4.76197210264e-10
-1.67732070562e-11
4.84414588086e-10
-1.9625988173e-11
4.93823363483e-10
-2.25374886697e-11
5.04451520533e-10
-2.55249466403e-11
5.16331867056e-10
-2.86026861046e-11
5.29500673226e-10
-3.17817362344e-11
5.43996085392e-10
-3.50692720042e-11
5.59856253172e-10
-3.84678667367e-11
5.77117106641e-10
-4.19745524776e-11
5.95809726144e-10
-4.55796947943e-11
6.15957256819e-10
-4.9265706936e-11
6.37571341656e-10
-5.3005655147e-11
6.60648078148e-10
-5.67618439482e-11
6.8516355301e-10
-6.04845156625e-11
7.11069072244e-10
-6.41108491808e-11
7.38286285157e-10
-6.75644894304e-11
7.66702488328e-10
-7.07558679496e-11
7.96166483583e-10
-7.35835666196e-11
8.2648542699e-10
-7.59369123981e-11
8.57423127119e-10
-7.7699857969e-11
8.88700201003e-10
-7.87560095097e-11
9.199963719e-10
-7.89944427862e-11
9.509549978e-10
-7.83157674086e-11
9.81189700196e-10
-7.66378302118e-11
1.01029276976e-09
-7.39005449046e-11
1.03784492501e-09
-7.00695858959e-11
1.06342600986e-09
-6.51390045489e-11
1.08662632212e-09
-5.91330818402e-11
1.10705839725e-09
-5.21078126017e-11
1.12436917359e-09
-4.4152277902e-11
1.13825245785e-09
-3.53897682645e-11
1.14846136683e-09
-2.59777836273e-11
1.15481978756e-09
-1.61051042498e-11
1.15723106698e-09
-5.98386549421e-12
1.15568182891e-09
4.16393319319e-12
1.1502396514e-09
1.41231767651e-11
1.14104500501e-09
2.37012068574e-11
1.12829939604e-09
3.27381539013e-11
1.11225240782e-09
4.11099610568e-11
1.09318996736e-09
4.87249892382e-11
1.07142494494e-09
5.5517360816e-11
1.04728994336e-09
6.14404410069e-11
1.02113146697e-09
6.64624807884e-11
9.93304600684e-10
7.05648402761e-11
9.64167551949e-10
7.37422668386e-11
9.34075702251e-10
7.60043588752e-11
9.03375119778e-10
7.73772623092e-11
8.72395783285e-10
7.79047070799e-11
8.41444989651e-10
7.76477209507e-11
8.10801515184e-10
7.66827331362e-11
7.80711049392e-10
7.50981925662e-11
7.51383257479e-10
7.29901571516e-11
7.22990603041e-10
7.04574824619e-11
6.9566884481e-10
6.75972365041e-11
6.69518950056e-10
6.45008292977e-11
6.44610071978e-10
6.1251141117e-11
6.2098321057e-10
5.79207275125e-11
5.98655206582e-10
5.45710191974e-11
5.7762277749e-10
5.12523371826e-11
5.57866379906e-10
4.80045054827e-11
5.39353753396e-10
4.48578487366e-11
5.22043064553e-10
4.1834393405e-11
5.05885617348e-10
3.89491325711e-11
4.90828132554e-10
3.62112565107e-11
4.76814620579e-10
3.36252873056e-11
4.63787887173e-10
3.11920845953e-11
4.51690716257e-10
2.89097099826e-11
4.40466777022e-10
2.67741516644e-11
4.30061299031e-10
2.47799190137e-11
4.20421556813e-10
2.29205215156e-11
4.11497199201e-10
2.11888479518e-11
4.03240455098e-10
1.95774619646e-11
3.95606241016e-10
1.80788288986e-11
3.8855219251e-10
1.66854875445e-11
3.82038636127e-10
1.53901785205e-11
3.76028516181e-10
1.41859396134e-11
3.70487286129e-10
1.30661767255e-11
3.65382772909e-10
1.20247180332e-11
3.60685018894e-10
1.10558577716e-11
3.5636610538e-10
1.01543955096e-11
3.52399958482e-10
9.31567609131e-12
3.48762138105e-10
8.5356353142e-12
3.45429608232e-10
7.81085611054e-12
3.4238048723e-10
7.13864013822e-12
3.39593775532e-10
6.51709940765e-12
3.37049060087e-10
5.94527228928e-12
3.34726196479e-10
5.42326674312e-12
3.32604976283e-10
4.95243051833e-12
3.30664796819e-10
4.53554072702e-12
3.28884370522e-10
4.17699025181e-12
3.27241542696e-10
3.882917247e-12
3.25713341065e-10
3.66116049677e-12
3.24276462315e-10
3.52079151298e-12
3.22908512578e-10
3.47069714813e-12
3.21590405118e-10
3.51608995555e-12
3.20310002062e-10
3.65057213711e-12
3.19064739653e-10
3.83924330785e-12
3.98909687724e-12
9.63980520226e-10
1.29256075369e-10
9.87832705444e-10
2.67609610486e-10
9.90077593111e-10
3.16331574813e-10
9.7279673318e-10
3.15495939601e-10
9.42930098076e-10
2.92443268012e-10
9.06517133103e-10
2.6157479326e-10
8.67746067815e-10
2.29675018758e-10
8.2925851503e-10
1.99673194344e-10
7.92606394384e-10
1.72645963191e-10
7.58625725262e-10
1.48808680411e-10
7.27701299421e-10
1.27997517737e-10
6.99943482129e-10
1.09901522509e-10
6.75302696716e-10
9.41721703965e-11
6.53642002818e-10
8.0472762264e-11
6.34782259047e-10
6.84983839631e-11
6.18529652025e-10
5.79817025879e-11
6.04692023441e-10
4.86922311357e-11
5.93088159801e-10
4.04328620731e-11
5.83552713819e-10
3.3035530091e-11
5.75938455584e-10
2.63568785375e-11
5.70116925999e-10
2.02743055879e-11
5.65978165486e-10
1.46825192105e-11
5.63429935225e-10
9.49061236619e-12
5.62396686507e-10
4.61961902656e-12
5.62818429828e-10
4.94157434666e-16
5.6464958794e-10
-4.42753826829e-12
5.67857874474e-10
-8.71831236395e-12
5.72423226409e-10
-1.29198011431e-11
5.78336778634e-10
-1.70749502043e-11
5.85599868692e-10
-2.12222961795e-11
5.94223048381e-10
-2.53963871888e-11
6.04225072284e-10
-2.9628012705e-11
6.15631825924e-10
-3.39442430907e-11
6.28475151091e-10
-3.83682726251e-11
6.42791519214e-10
-4.29190550038e-11
6.58620499177e-10
-4.76107167686e-11
6.76002960387e-10
-5.24517334553e-11
6.94978949774e-10
-5.74438558245e-11
7.15585180081e-10
-6.2580781777e-11
7.3785207193e-10
-6.78465846756e-11
7.61800302079e-10
-7.32139339593e-11
7.87436831957e-10
-7.86421804673e-11
8.14750423156e-10
-8.40754289486e-11
8.43706697577e-10
-8.94407819683e-11
8.74242867359e-10
-9.46470087412e-11
9.06262347683e-10
-9.95839571781e-11
9.39629564463e-10
-1.04123069658e-10
9.7416537121e-10
-1.08119355621e-10
1.009643569e-09
-1.11415089732e-10
1.04578905695e-09
-1.13845322687e-10
1.082278093e-09
-1.15245019703e-10
1.11874100395e-09
-1.15457325388e-10
1.1547674516e-09
-1.14342184641e-10
1.18991409127e-09
-1.11784437854e-10
1.22371421719e-09
-1.07700637961e-10
1.25568886291e-09
-1.02044198748e-10
1.28535884519e-09
-9.48089551035e-11
1.31225738556e-09
-8.60315927669e-11
1.33594312553e-09
-7.57935267333e-11
1.35601351014e-09
-6.42226414883e-11
1.37211859498e-09
-5.14948380971e-11
1.38397515573e-09
-3.7834336324e-11
1.39138018692e-09
-2.35101351201e-11
1.3942215706e-09
-8.8252568952e-12
1.39248301355e-09
5.90247443506e-12
1.38624141797e-09
2.03647490055e-11
1.3756571537e-09
3.42854410645e-11
1.36095979111e-09
4.7435480871e-11
1.34243282621e-09
5.96368858852e-11
1.3204003522e-09
7.07574198593e-11
1.29521686788e-09
8.07007993614e-11
1.26725972531e-09
8.93975364098e-11
1.23692300832e-09
9.67991500601e-11
1.20461176321e-09
1.02876037966e-10
1.17073587962e-09
1.07618104027e-10
1.13570326817e-09
1.11036925605e-10
1.09991231871e-09
1.13168169159e-10
1.06374396475e-09
1.14073020928e-10
1.027553941e-09
1.13837707266e-10
9.9166592639e-10
1.12570713118e-10
9.56366190251e-10
1.10397896862e-10
9.21900150656e-10
1.07456167665e-10
8.88470979861e-10
1.03886626777e-10
8.56240133089e-10
9.98280592605e-11
8.2532948381e-10
9.54114567773e-11
7.95824648363e-10
9.07559567732e-11
7.67779063629e-10
8.59662941706e-11
7.41218424849e-10
8.1131641384e-11
7.16145164643e-10
7.6325581983e-11
6.92542740563e-10
7.16069151281e-11
6.70379577469e-10
6.70209981065e-11
6.49612579107e-10
6.26013785803e-11
6.30190173654e-10
5.83715251707e-11
6.12054895524e-10
5.43465220059e-11
5.951455286e-10
5.05346416714e-11
5.79398850982e-10
4.69387496772e-11
5.64751027066e-10
4.35575212977e-11
5.5113869538e-10
4.03864706796e-11
5.38499798029e-10
3.74188035836e-11
5.26774194981e-10
3.46461117025e-11
5.15904100929e-10
3.20589290525e-11
5.05834378412e-10
2.96471714974e-11
4.96512715052e-10
2.74004792481e-11
4.87889709044e-10
2.5308480584e-11
4.79918881869e-10
2.33609927891e-11
4.72556634328e-10
2.15481743819e-11
4.65762157826e-10
1.98606406134e-11
4.59497310788e-10
1.82895526858e-11
4.53726466852e-10
1.68266895748e-11
4.48416340179e-10
1.54645103729e-11
4.43535790753e-10
1.41962140512e-11
4.39055611986e-10
1.30158030265e-11
4.34948301242e-10
1.19181562321e-11
4.31187814289e-10
1.08991169654e-11
4.27749304278e-10
9.95559980894e-12
4.24608848003e-10
9.08571953547e-12
4.21743164488e-10
8.28894183549e-12
4.19129337082e-10
7.566250176e-12
4.16744558543e-10
6.92031223037e-12
4.14565933266e-10
6.35560929296e-12
4.12570390887e-10
5.87845424879e-12
4.1073479401e-10
5.4967529635e-12
4.09036352271e-10
5.21922985976e-12
4.07453462789e-10
5.0535842983e-12
4.0596697801e-10
5.00257340444e-12
4.04561299476e-10
5.05625015026e-12
4.03222511576e-10
5.17803124221e-12
5.28498120893e-12
9.5761143473e-10
1.09144642366e-10
9.82770014789e-10
2.42451032282e-10
9.95503226144e-10
3.03598365091e-10
9.9306003097e-10
3.17939135506e-10
9.78581867179e-10
3.06921432075e-10
9.56166603372e-10
2.83990057246e-10
9.29262597444e-10
2.56579024915e-10
9.00400348949e-10
2.28535443162e-10
8.71315819181e-10
2.01730493374e-10
8.43143522099e-10
1.76980978001e-10
8.16588583368e-10
1.54552457058e-10
7.92059737033e-10
1.34430369514e-10
7.69766335334e-10
1.16465572836e-10
7.49787048271e-10
1.00452050137e-10
7.32117643306e-10
8.61677897907e-11
7.16703775595e-10
7.33955712088e-11
7.03463225116e-10
6.19327825466e-11
6.92300788614e-10
5.15952995175e-11
6.83118101847e-10
4.22182177756e-11
6.7581998762e-10
3.36549936377e-11
6.70318438845e-10
2.57758551496e-11
6.66535003453e-10
1.84659552783e-11
6.64402097808e-10
1.16235185276e-11
6.63863608509e-10
5.15810865918e-12
6.64875026064e-10
-1.01092329323e-12
6.67403267079e-10
-6.95577942702e-12
6.7142629639e-10
-1.27413421037e-11
6.76932620539e-10
-1.84261260092e-11
6.83920679069e-10
-2.40630097611e-11
6.92398151847e-10
-2.96997702706e-11
7.02381182187e-10
-3.53794191212e-11
7.13893503114e-10
-4.11403354472e-11
7.26965442969e-10
-4.70161849361e-11
7.41632777841e-10
-5.30356095605e-11
7.57935389615e-10
-5.92216688236e-11
7.75915681608e-10
-6.55910106354e-11
7.95616696986e-10
-7.21527503911e-11
8.17079881184e-10
-7.89070410628e-11
8.40342427179e-10
-8.58433281048e-11
8.65434145514e-10
-9.29383023909e-11
8.92373809534e-10
-1.00153596183e-10
9.21164945568e-10
-1.07433313256e-10
9.5179106931e-10
-1.14701547763e-10
9.8421041984e-10
-1.21860125612e-10
1.01835031284e-09
-1.28786892676e-10
1.05410132871e-09
-1.35334961553e-10
1.0913116633e-09
-1.41333390155e-10
1.12978209003e-09
-1.46589765472e-10
1.16926208566e-09
-1.50895065607e-10
1.20944772616e-09
-1.54030940502e-10
1.24998192064e-09
-1.55779188627e-10
1.29045739353e-09
-1.55932770004e-10
1.33042254911e-09
-1.54307309567e-10
1.36939001296e-09
-1.50751869141e-10
1.40684733891e-09
-1.45157930161e-10
1.44226920983e-09
-1.37466035626e-10
1.47513050405e-09
-1.27670216144e-10
1.50491980902e-09
-1.1582086669e-10
1.53115321626e-09
-1.02026906452e-10
1.55338845576e-09
-8.64578583625e-11
1.57123964353e-09
-6.93460094576e-11
1.58439291211e-09
-5.09875958209e-11
1.59262223348e-09
-3.17394555962e-11
1.59580264099e-09
-1.20056721793e-11
1.59391667879e-09
7.78842017641e-12
1.58705134876e-09
2.72300544643e-11
1.57538615314e-09
4.59506050084e-11
1.55917569902e-09
6.36458975582e-11
1.53873163115e-09
8.00809119069e-11
1.51440776277e-09
9.50812431773e-11
1.48658961872e-09
1.0851889617e-10
1.45568723898e-09
1.20299867721e-10
1.42212940156e-09
1.30356938757e-10
1.38635791794e-09
1.3864747346e-10
1.3488212582e-09
1.45154716965e-10
1.309967154e-09
1.49890984961e-10
1.2702341908e-09
1.52901089908e-10
1.23004280799e-09
1.5426436399e-10
1.18978644581e-09
1.5409403254e-10
1.14982369412e-09
1.52533430816e-10
1.1104721888e-09
1.49749371057e-10
1.07200472896e-09
1.45923599175e-10
1.034647747e-09
1.41243583043e-10
9.98581952796e-10
1.35893830244e-10
9.63944755908e-10
1.3004863268e-10
9.30833968892e-10
1.23866724813e-10
8.99312292403e-10
1.17487953406e-10
8.69412147343e-10
1.11031770665e-10
8.41140513639e-10
1.04597201096e-10
8.14483535412e-10
9.82638797181e-11
7.89410740269e-10
9.20937803127e-11
7.65878791957e-10
8.613331447e-11
7.4383474731e-10
8.04155577117e-11
7.2321882488e-10
7.49624325197e-11
7.03966714636e-10
6.97867400555e-11
6.8601147145e-10
6.48939809935e-11
6.69285040226e-10
6.02839405682e-11
6.53719462098e-10
5.59520367537e-11
6.39247808627e-10
5.18904448709e-11
6.2580488773e-10
4.80890203076e-11
6.13327759988e-10
4.45360443973e-11
6.01756099588e-10
4.12188194401e-11
5.91032428831e-10
3.81241375078e-11
5.81102251071e-10
3.52386458652e-11
5.71914102296e-10
3.25491291334e-11
5.63419538339e-10
3.0042726019e-11
5.55573070959e-10
2.77070958184e-11
5.48332063672e-10
2.55305480031e-11
5.41656595372e-10
2.3502146145e-11
5.35509298173e-10
2.16117961409e-11
5.29855173887e-10
1.9850327236e-11
5.24661392695e-10
1.82095735054e-11
5.19897076349e-10
1.66824622814e-11
5.15533068338e-10
1.5263115151e-11
5.11541693336e-10
1.39469654862e-11
5.07896509786e-10
1.27308943162e-11
5.04572061317e-10
1.1613382122e-11
5.01543636759e-10
1.05946672006e-11
4.98787053656e-10
9.67688849065e-12
4.96278488138e-10
8.86416873877e-12
4.93994382599e-10
8.16255455075e-12
4.91911470279e-10
7.5796609858e-12
4.90006949756e-10
7.12374709337e-12
4.88258789615e-10
6.80174221978e-12
4.86645941466e-10
6.61542037793e-12
4.85147624388e-10
6.554566858e-12
4.83739440416e-10
6.58621533112e-12
6.64174385872e-12
9.53011280672e-10
9.36333622194e-11
9.76768033234e-10
2.18694280421e-10
9.9439031757e-10
2.8597608096e-10
1.00115153764e-09
3.11177915429e-10
9.97671762107e-10
3.10401207401e-10
9.86353843884e-10
2.95307975234e-10
9.69734285159e-10
2.73198583482e-10
9.49940768654e-10
2.48328959616e-10
9.28600378956e-10
2.23070883127e-10
9.06896628906e-10
1.98684728201e-10
8.85660313582e-10
1.75788772623e-10
8.65455583477e-10
1.54635099941e-10
8.46650867563e-10
1.35270289147e-10
8.2947400593e-10
1.17628912232e-10
8.14053860575e-10
1.01587935665e-10
8.00451179327e-10
8.69982530178e-11
7.88681217947e-10
7.37027445139e-11
7.78730164895e-10
6.15463531583e-11
7.70566962685e-10
5.03814205529e-11
7.64151738343e-10
4.00702184945e-11
7.59441751672e-10
3.04858422489e-11
7.56395535465e-10
2.15121717928e-11
7.54975723728e-10
1.30433304128e-11
7.55150930464e-10
4.98290187387e-12
7.56896942268e-10
-2.75693537734e-12
7.60197403177e-10
-1.02562408812e-11
7.65044142913e-10
-1.7588082676e-11
7.71437232237e-10
-2.48192164785e-11
7.79384820886e-10
-3.20105998732e-11
7.8890279545e-10
-3.92177466092e-11
8.00014274207e-10
-4.6490899943e-11
8.12748940283e-10
-5.38750038384e-11
8.27142201311e-10
-6.14094484663e-11
8.43234152623e-10
-6.91275634773e-11
8.61068310875e-10
-7.70558296707e-11
8.8069007612e-10
-8.52127783292e-11
9.0214487233e-10
-9.36075487364e-11
9.25475910075e-10
-1.02238080444e-10
9.50721510939e-10
-1.11088929888e-10
9.77911933076e-10
-1.201287245e-10
1.00706564304e-09
-1.29307304917e-10
1.03818499402e-09
-1.38552661559e-10
1.07125129913e-09
-1.47767848464e-10
1.10621933547e-09
-1.56828155561e-10
1.1430113865e-09
-1.65578935072e-10
1.18151102998e-09
-1.73834593922e-10
1.22155700656e-09
-1.81379352951e-10
1.26293764926e-09