/*--------------------------------*- C++ -*----------------------------------*\
  =========                 |
  \\      /  F ield         | OpenFOAM: The Open Source CFD Toolbox
   \\    /   O peration     | Website:  https://openfoam.org
    \\  /    A nd           | Version:  7
     \\/     M anipulation  |
\*---------------------------------------------------------------------------*/
FoamFile
{
    version     2.0;
    format      ascii;
    class       volVectorField;
    location    "960";
    object      U;
}
// * * * * * * * * * * * * * * * * * * * * * * * * * * * * * * * * * * * * * //

dimensions      [0 1 -1 0 0 0 0];

internalField   nonuniform List<vector> 
8192
(
(0.00104345275013 0.000156547249868 0)
(0.000759297017721 0.000127608486166 0)
(0.000549291326573 8.23972116906e-05 0)
(0.000414050472895 5.2843647624e-05 0)
(0.000326269465577 3.49373644796e-05 0)
(0.000267294456329 2.40376491301e-05 0)
(0.000226056990326 1.71998211043e-05 0)
(0.000196116917421 1.27402560406e-05 0)
(0.000173664404215 9.71226145815e-06 0)
(0.00015637558844 7.57655867697e-06 0)
(0.000142781195272 6.01783892016e-06 0)
(0.000131917621755 4.84573909799e-06 0)
(0.000123130556463 3.94133076226e-06 0)
(0.000115961488233 3.22774210476e-06 0)
(0.000110080104686 2.65364614036e-06 0)
(0.000105242740729 2.18372257117e-06 0)
(0.000101266037339 1.79298561878e-06 0)
(9.80097455132e-05 1.4633110419e-06 0)
(9.53651908334e-05 1.18124849115e-06 0)
(9.324734121e-05 9.36605988521e-07 0)
(9.15892294698e-05 7.21510589155e-07 0)
(9.03379532925e-05 5.29770387781e-07 0)
(8.94517559682e-05 3.56431674027e-07 0)
(8.88978634582e-05 1.97465491461e-07 0)
(8.86508608554e-05 4.954166162e-08 0)
(8.86914602907e-05 -9.01366686771e-08 0)
(8.90055564807e-05 -2.23955232284e-07 0)
(8.9583495907e-05 -3.53980052471e-07 0)
(9.0419507205e-05 -4.82027256961e-07 0)
(9.1511253349e-05 -6.09715044994e-07 0)
(9.28594737078e-05 -7.38501605208e-07 0)
(9.44676901652e-05 -8.69711249184e-07 0)
(9.6341955152e-05 -1.00455020273e-06 0)
(9.84906211926e-05 -1.14411231612e-06 0)
(0.000100924111758 -1.28937467368e-06 0)
(0.000103654672344 -1.44118219686e-06 0)
(0.000106696078829 -1.6002203347e-06 0)
(0.000110063277811 -1.76697433913e-06 0)
(0.000113771931022 -1.94167408116e-06 0)
(0.00011783783393 -2.12422341081e-06 0)
(0.000122276178038 -2.31411450492e-06 0)
(0.000127100628669 -2.51032900038e-06 0)
(0.000132322196721 -2.7112308322e-06 0)
(0.000137947895893 -2.91445886892e-06 0)
(0.000143979197832 -3.11683219698e-06 0)
(0.000150410327224 -3.31428477934e-06 0)
(0.000157226475947 -3.50184986802e-06 0)
(0.000164402056085 -3.67371443531e-06 0)
(0.000171899148347 -3.82336017538e-06 0)
(0.000179666325202 -3.94379719009e-06 0)
(0.000187638025537 -4.02788185472e-06 0)
(0.000195734622797 -4.06869241482e-06 0)
(0.000203863261825 -4.05992211317e-06 0)
(0.000211919453713 -3.9962440452e-06 0)
(0.000219789335293 -3.8736109771e-06 0)
(0.000227352446935 -3.68947379118e-06 0)
(0.000234484876997 -3.44292971873e-06 0)
(0.000241062665276 -3.13483306261e-06 0)
(0.000246965431736 -2.76790977393e-06 0)
(0.000252080265553 -2.34690313591e-06 0)
(0.000256305923153 -1.878737115e-06 0)
(0.000259557285107 -1.37261181953e-06 0)
(0.000261769776966 -8.39872014735e-07 0)
(0.000262903134108 -2.93482593084e-07 0)
(0.000262943684138 2.52929315159e-07 0)
(0.000261904459217 7.86286536221e-07 0)
(0.000259822976787 1.29518122299e-06 0)
(0.000256757182301 1.77059343673e-06 0)
(0.000252780522616 2.20604187579e-06 0)
(0.000247977217075 2.59723543632e-06 0)
(0.0002424384762 2.94147407441e-06 0)
(0.000236259895254 3.23707308545e-06 0)
(0.000229539803512 3.48298314645e-06 0)
(0.000222378135481 3.67864832557e-06 0)
(0.000214875394665 3.82405553065e-06 0)
(0.000207131407865 3.91989450252e-06 0)
(0.000199243735344 3.96774198314e-06 0)
(0.00019130576363 3.97019487185e-06 0)
(0.000183404636933 3.93089850746e-06 0)
(0.00017561925889 3.85444801586e-06 0)
(0.000168018608403 3.74617292754e-06 0)
(0.000160660566009 3.61184198451e-06 0)
(0.00015359136108 3.45733754234e-06 0)
(0.000146845651519 3.28834864939e-06 0)
(0.000140447161889 3.11011955087e-06 0)
(0.000134409748649 2.92727406171e-06 0)
(0.000128738737428 2.74371917372e-06 0)
(0.000123432382344 2.56261938098e-06 0)
(0.000118483322039 2.3864256607e-06 0)
(0.000113879940674 2.21694151217e-06 0)
(0.00010960757651 2.055409346e-06 0)
(0.000105649550267 1.90260429969e-06 0)
(0.000101988008057 1.75892586343e-06 0)
(9.86045888319e-05 1.62448172539e-06 0)
(9.54809351834e-05 1.49916057972e-06 0)
(9.2599070291e-05 1.38269316457e-06 0)
(8.99416644673e-05 1.27470163189e-06 0)
(8.74922132936e-05 1.17473857892e-06 0)
(8.52351468342e-05 1.08231694569e-06 0)
(8.31558864313e-05 9.96932528302e-07 0)
(8.12408626504e-05 9.18080323265e-07 0)
(7.94775051853e-05 8.45266215206e-07 0)
(7.78542131726e-05 7.7801488822e-07 0)
(7.63603123152e-05 7.15875097197e-07 0)
(7.49860035763e-05 6.58422834506e-07 0)
(7.37223068152e-05 6.05263213562e-07 0)
(7.2561001659e-05 5.56031357818e-07 0)
(7.14945669637e-05 5.10392914134e-07 0)
(7.05161194754e-05 4.68044348527e-07 0)
(6.96193515756e-05 4.28713557231e-07 0)
(6.87984673516e-05 3.92160939867e-07 0)
(6.80481154739e-05 3.58181510694e-07 0)
(6.73633165347e-05 3.2660833493e-07 0)
(6.67393813665e-05 2.9731810427e-07 0)
(6.61718153782e-05 2.70239551382e-07 0)
(6.56562017545e-05 2.45366165675e-07 0)
(6.51880531666e-05 2.22774972558e-07 0)
(6.47626166681e-05 2.0265456358e-07 0)
(6.43746086204e-05 1.853470426e-07 0)
(6.40178436791e-05 1.71412013631e-07 0)
(6.36847005802e-05 1.61725798461e-07 0)
(6.33653316561e-05 1.57638481303e-07 0)
(6.30464642974e-05 1.6122491824e-07 0)
(6.27095562846e-05 1.75679839904e-07 0)
(6.23279904024e-05 2.05883458981e-07 0)
(6.18632462952e-05 2.58858642001e-07 0)
(6.12620875674e-05 3.42298688193e-07 0)
(6.04805590685e-05 4.39229038937e-07 0)
(0.00121016314182 0.000302931362012 0)
(0.00116030427807 0.000315238983872 0)
(0.00102698252523 0.000238094175676 0)
(0.00088768356015 0.000171686517206 0)
(0.000767226743041 0.000124332332057 0)
(0.000669080951241 9.17634944395e-05 0)
(0.000590536501068 6.92559035972e-05 0)
(0.000527763000234 5.33977589881e-05 0)
(0.000477320240038 4.19500437794e-05 0)
(0.000436470763611 3.34770806193e-05 0)
(0.000403127426848 2.70550591716e-05 0)
(0.000375719154006 2.20803776738e-05 0)
(0.000353062491137 1.81504330128e-05 0)
(0.000334259689858 1.4990522221e-05 0)
(0.000318623104128 1.24088483305e-05 0)
(0.000305620530647 1.02684710007e-05 0)
(0.000294835967492 8.46951703306e-06 0)
(0.000285941374187 6.93767813692e-06 0)
(0.00027867619983 5.61662384113e-06 0)
(0.000272832396763 4.46289671506e-06 0)
(0.000268243330511 3.44241115389e-06 0)
(0.000264775482044 2.5280076185e-06 0)
(0.000262322172375 1.69771437087e-06 0)
(0.000260798768314 9.33492020687e-07 0)
(0.000260138985006 2.20313357299e-07 0)
(0.000260292008926 -4.545197957e-07 0)
(0.00026122023874 -1.10188661718e-06 0)
(0.000262897494157 -1.73123246977e-06 0)
(0.000265307581274 -2.35086266792e-06 0)
(0.000268443126702 -2.96816104521e-06 0)
(0.000272304608413 -3.58974788485e-06 0)
(0.000276899523034 -4.22158653506e-06 0)
(0.000282241636231 -4.86904373328e-06 0)
(0.000288350266168 -5.53690536477e-06 0)
(0.000295249550618 -6.22934699465e-06 0)
(0.000302967646827 -6.94985650954e-06 0)
(0.000311535810336 -7.70110503153e-06 0)
(0.000320987295574 -8.48476169866e-06 0)
(0.000331356018114 -9.30124874003e-06 0)
(0.000342674917747 -1.01494355627e-05 0)
(0.000354973964875 -1.10262754131e-05 0)
(0.000368277762974 -1.19263957335e-05 0)
(0.000382602719842 -1.2841664551e-05 0)
(0.000397953793321 -1.37607694923e-05 0)
(0.00041432086508 -1.46688626907e-05 0)
(0.000431674859325 -1.55473406741e-05 0)
(0.000449963798085 -1.63738392174e-05 0)
(0.000469109062663 -1.7122522323e-05 0)
(0.000489002197059 -1.77647261039e-05 0)
(0.000509502625174 -1.82699780398e-05 0)
(0.000530436640031 -1.86073528611e-05 0)
(0.000551597948646 -1.87470592322e-05 0)
(0.000572749923638 -1.86620972622e-05 0)
(0.000593629546036 -1.83298081398e-05 0)
(0.000613952863769 -1.77331695369e-05 0)
(0.000633421682968 -1.6861769503e-05 0)
(0.000651731185105 -1.57124917653e-05 0)
(0.000668578222262 -1.42900264222e-05 0)
(0.00068367014913 -1.26073465712e-05 0)
(0.000696734141245 -1.06862384084e-05 0)
(0.00070752694388 -8.55781986177e-06 0)
(0.000715844807849 -6.26272648031e-06 0)
(0.000721532952424 -3.85038061532e-06 0)
(0.000724493365986 -1.37674793985e-06 0)
(0.000724689448144 1.09954240391e-06 0)
(0.00072214628923 3.52202071886e-06 0)
(0.000716946331465 5.84083520977e-06 0)
(0.000709221330635 8.01566887393e-06 0)
(0.000699142393456 1.00164854937e-05 0)
(0.000686910051125 1.18223520644e-05 0)
(0.00067274579265 1.34192614714e-05 0)
(0.000656885575169 1.47979831548e-05 0)
(0.000639575032593 1.59526027978e-05 0)
(0.000621065694214 1.68799287489e-05 0)
(0.000601611492055 1.75796117926e-05 0)
(0.000581465028152 1.80546842974e-05 0)
(0.000560873355086 1.83121961578e-05 0)
(0.000540073312356 1.83636576652e-05 0)
(0.000519286701841 1.8225080444e-05 0)
(0.000498715732375 1.79165266648e-05 0)
(0.000478539192413 1.74612036965e-05 0)
(0.000458909727564 1.68842434183e-05 0)
(0.000439952441557 1.62113579185e-05 0)
(0.000421764853373 1.54675625656e-05 0)
(0.000404418076397 1.46761141083e-05 0)
(0.000387958968129 1.38577477479e-05 0)
(0.000372412943001 1.30302329308e-05 0)
(0.000357787140188 1.22082184242e-05 0)
(0.000344073677482 1.14033077847e-05 0)
(0.000331252782791 1.06242963043e-05 0)
(0.00031929566071 9.87750384735e-06 0)
(0.000308167011904 9.16714960654e-06 0)
(0.000297827171927 8.49572879332e-06 0)
(0.000288233871761 7.86436516352e-06 0)
(0.000279343645711 7.27312444736e-06 0)
(0.000271112925427 6.72128247074e-06 0)
(0.000263498864444 6.20754734341e-06 0)
(0.000256459937956 5.73023882959e-06 0)
(0.000249956359732 5.28742969242e-06 0)
(0.000243950353498 4.87705471403e-06 0)
(0.000238406310796 4.49699290209e-06 0)
(0.00023329086203 4.14512816485e-06 0)
(0.000228572882404 3.81939294886e-06 0)
(0.000224223449965 3.51779885023e-06 0)
(0.000220215769134 3.23845740342e-06 0)
(0.000216525069752 2.97959386561e-06 0)
(0.000213128488936 2.73955618501e-06 0)
(0.000210004940604 2.51682115269e-06 0)
(0.000207134975547 2.30999932825e-06 0)
(0.000204500633078 2.11784035412e-06 0)
(0.000202085283593 1.93924009825e-06 0)
(0.000199873459675 1.77325132722e-06 0)
(0.000197850671617 1.61909972465e-06 0)
(0.000196003201162 1.47620766813e-06 0)
(0.000194317864936 1.34422874535e-06 0)
(0.000192781736186 1.22309719303e-06 0)
(0.000191381810081 1.11309788093e-06 0)
(0.000190104594074 1.01496489602e-06 0)
(0.000188935601195 9.30019967419e-07 0)
(0.000187858722614 8.60366648229e-07 0)
(0.000186855461238 8.09161498907e-07 0)
(0.00018590403363 7.80987112794e-07 0)
(0.000184978426177 7.82340931987e-07 0)
(0.000184047707285 8.22182645879e-07 0)
(0.00018307647039 9.12177400953e-07 0)
(0.000182028721227 1.06505374912e-06 0)
(0.000180881830152 1.28415073332e-06 0)
(0.000179655246949 1.50548738399e-06 0)
(0.00122477880982 0.00026798941755 0)
(0.0012410904213 0.000383728197723 0)
(0.00119623736664 0.000347779787521 0)
(0.00111357440112 0.000283962851275 0)
(0.00102072536555 0.000225361864216 0)
(0.000931388540091 0.000178216592403 0)
(0.000850989291071 0.000141746517602 0)
(0.000780916309843 0.000113753639974 0)
(0.00072079622674 9.21570192448e-05 0)
(0.000669599799914 7.5316021807e-05 0)
(0.00062614612519 6.20131431196e-05 0)
(0.00058931398145 5.13627242092e-05 0)
(0.000558116717717 4.2722027223e-05 0)
(0.00053171674823 3.56217131515e-05 0)
(0.000509415562983 2.97154429583e-05 0)
(0.000490635633759 2.47443938369e-05 0)
(0.000474901303296 2.05125027053e-05 0)
(0.000461821426746 1.68691772902e-05 0)
(0.000451074595406 1.36971453704e-05 0)
(0.000442396952912 1.09038356782e-05 0)
(0.000435572308687 8.41519746052e-06 0)
(0.000430424175553 6.17121748696e-06 0)
(0.000426809373822 4.12263016964e-06 0)
(0.000424612892054 2.22847593153e-06 0)
(0.00042374374817 4.54270055696e-07 0)
(0.000424131643527 -1.22938287981e-06 0)
(0.000425724241481 -2.84783898398e-06 0)
(0.000428484936631 -4.42321894693e-06 0)
(0.000432391007456 -5.97502300112e-06 0)
(0.000437432060078 -7.52058817903e-06 0)
(0.000443608683574 -9.07541584187e-06 0)
(0.000450931246567 -1.06533864127e-05 0)
(0.000459418769594 -1.22668704565e-05 0)
(0.000469097809543 -1.39267388211e-05 0)
(0.000480001291778 -1.56422701444e-05 0)
(0.000492167223225 -1.74209502072e-05 0)
(0.000505637216221 -1.92681558912e-05 0)
(0.000520454749666 -2.11867159675e-05 0)
(0.000536663092114 -2.31763437869e-05 0)
(0.00055430281306 -2.52329427458e-05 0)
(0.000573408816198 -2.73477968919e-05 0)
(0.00059400684516 -2.95066758509e-05 0)
(0.00061610944146 -3.16889076809e-05 0)
(0.000639711379754 -3.38665031678e-05 0)
(0.000664784668987 -3.60034494491e-05 0)
(0.00069127328963 -3.80553221622e-05 0)
(0.000719087931955 -3.99693856907e-05 0)
(0.000748101097553 -4.16853461305e-05 0)
(0.000778143008005 -4.31368803507e-05 0)
(0.000808998807574 -4.42539778477e-05 0)
(0.000840407527196 -4.49660073953e-05 0)
(0.000872063179798 -4.52052798959e-05 0)
(0.000903618185092 -4.49107659878e-05 0)
(0.000934689104689 -4.40315870457e-05 0)
(0.000964864456583 -4.25299643005e-05 0)
(0.000993714230568 -4.03834726728e-05 0)
(0.00102080068278 -3.75866511171e-05 0)
(0.00104569004871 -3.41521847399e-05 0)
(0.00106796493462 -3.01119252017e-05 0)
(0.00108723725537 -2.55179095272e-05 0)
(0.00110316159337 -2.0443241883e-05 0)
(0.00111544865367 -1.49821993635e-05 0)
(0.00112387799678 -9.24838608589e-06 0)
(0.00112830854429 -3.36971539445e-06 0)
(0.00112868491067 2.52002807433e-06 0)
(0.00112503796213 8.29158857034e-06 0)
(0.0011174792424 1.38298718273e-05 0)
(0.00110619045869 1.90403269344e-05 0)
(0.00109141034732 2.38507719097e-05 0)
(0.00107342146401 2.82091757584e-05 0)
(0.00105253872248 3.20793135042e-05 0)
(0.00102910031882 3.5436421848e-05 0)
(0.001003460678 3.826421347e-05 0)
(0.000975984584495 4.05536146766e-05 0)
(0.00094704165199 4.23029261915e-05 0)
(0.000917000529329 4.3518825012e-05 0)
(0.000886222573598 4.42175573156e-05 0)
(0.000855055065275 4.44257264475e-05 0)
(0.000823824332881 4.41802402048e-05 0)
(0.000792829335044 4.35272271783e-05 0)
(0.000762336281703 4.25199970894e-05 0)
(0.000732574770256 4.12163345807e-05 0)
(0.00070373571073 3.96755280165e-05 0)
(0.000675971078088 3.79555361121e-05 0)
(0.000649395317704 3.61106073247e-05 0)
(0.000624088080497 3.4189535379e-05 0)
(0.000600097891295 3.22346002928e-05 0)
(0.000577446350379 3.02811400335e-05 0)
(0.000556132514589 2.83576337777e-05 0)
(0.000536137178189 2.6486153679e-05 0)
(0.000517426855461 2.46830460838e-05 0)
(0.000499957343161 2.29597252168e-05 0)
(0.000483676804164 2.1323490323e-05 0)
(0.000468528361187 1.97783059333e-05 0)
(0.000454452222101 1.83255086085e-05 0)
(0.000441387378288 1.69644225622e-05 0)
(0.000429272927606 1.56928792348e-05 0)
(0.000418049076626 1.45076447517e-05 0)
(0.000407657875316 1.34047636044e-05 0)
(0.000398043733011 1.23798295742e-05 0)
(0.000389153758864 1.14281950782e-05 0)
(0.000380937963742 1.05451300703e-05 0)
(0.000373349354459 9.72594023654e-06 0)
(0.000366343945547 8.96605338925e-06 0)
(0.000359880708691 8.26108133737e-06 0)
(0.000353921475482 7.60686373874e-06 0)
(0.000348430805306 6.99949908546e-06 0)
(0.000343375826822 6.43536754437e-06 0)
(0.000338726058686 5.91114943523e-06 0)
(0.00033445321256 5.42384310264e-06 0)
(0.000330530979305 4.97078543693e-06 0)
(0.000326934797074 4.54967869156e-06 0)
(0.000323641598169 4.15862720681e-06 0)
(0.000320629529638 3.79618850213e-06 0)
(0.000317877640995 3.46144367318e-06 0)
(0.000315365531219 3.1540933645e-06 0)
(0.000313072946938 2.87458646843e-06 0)
(0.000310979325512 2.62429004254e-06 0)
(0.000309063282814 2.40570876606e-06 0)
(0.000307302060162 2.22275966992e-06 0)
(0.000305670976503 2.08109647289e-06 0)
(0.000304142996495 1.98844522786e-06 0)
(0.000302688652353 1.954822475e-06 0)
(0.00030127680018 1.99226281896e-06 0)
(0.000299877123825 2.11300379924e-06 0)
(0.000298465992412 2.32310379206e-06 0)
(0.000297036982282 2.60199985433e-06 0)
(0.000295608799223 2.84240385335e-06 0)
(0.00122193388776 0.000221276725438 0)
(0.00125342993043 0.000382633247866 0)
(0.00125118597634 0.000395971758498 0)
(0.00121364220076 0.000355977631827 0)
(0.00115582238802 0.000304015940984 0)
(0.00109012742105 0.000254594316502 0)
(0.00102402650736 0.000211868964601 0)
(0.000961475743291 0.000176254946836 0)
(0.000904296252244 0.00014695529531 0)
(0.000853105007632 0.000122905426188 0)
(0.000807879729599 0.000103102700731 0)
(0.000768284993434 8.67000559651e-05 0)
(0.000733853952003 7.30130103101e-05 0)
(0.000704086005753 6.14986556873e-05 0)
(0.000678496732139 5.17289693534e-05 0)
(0.000656641273637 4.33662653946e-05 0)
(0.000638123329858 3.61429157324e-05 0)
(0.000622596613095 2.98453679874e-05 0)
(0.000609762586866 2.43018226585e-05 0)
(0.000599366577332 1.9372820773e-05 0)
(0.000591193371719 1.4944072419e-05 0)
(0.000585062872611 1.09209847648e-05 0)
(0.000580826075863 7.22447105968e-06 0)
(0.00057836147643 3.78772554461e-06 0)
(0.000577571919962 5.53729632147e-07 0)
(0.000578381874078 -2.52668362321e-06 0)
(0.000580735070131 -5.49632452625e-06 0)
(0.000584592462938 -8.39281425225e-06 0)
(0.000589930453248 -1.124948234e-05 0)
(0.000596739311665 -1.40960339768e-05 0)
(0.000605021745583 -1.69590220782e-05 0)
(0.000614791550944 -1.98621435575e-05 0)
(0.000626072289005 -2.28263696746e-05 0)
(0.00063889592577 -2.58699116223e-05 0)
(0.000653301368057 -2.90080169304e-05 0)
(0.000669332825781 -3.22525870845e-05 0)
(0.000687037925515 -3.56116052771e-05 0)
(0.000706465496681 -3.90883633195e-05 0)
(0.00072766295028 -4.26804827137e-05 0)
(0.000750673172982 -4.63787352623e-05 0)
(0.000775530869096 -5.01656884228e-05 0)
(0.000802258303024 -5.40142284118e-05 0)
(0.000830860428675 -5.7886054089e-05 0)
(0.000861319443941 -6.17302825684e-05 0)
(0.000893588880163 -6.54823624311e-05 0)
(0.000927587428737 -6.90635395029e-05 0)
(0.00096319281503 -7.23811518291e-05 0)
(0.00100023614202 -7.53300208793e-05 0)
(0.00103849722277 -7.77951383569e-05 0)
(0.00107770147463 -7.96557060981e-05 0)
(0.00111751893 -8.07903824752e-05 0)
(0.00115756580666 -8.10833564617e-05 0)
(0.00119740887661 -8.04306819803e-05 0)
(0.00123657260672 -7.87462342866e-05 0)
(0.00127454878077 -7.59667544796e-05 0)
(0.00131080812466 -7.20557119343e-05 0)
(0.00134481339832 -6.70060519818e-05 0)
(0.00137603349246 -6.08421637581e-05 0)
(0.00140395822039 -5.36214884696e-05 0)
(0.00142811364534 -4.5436032112e-05 0)
(0.00144807784412 -3.64136108256e-05 0)
(0.00146349684779 -2.67178662242e-05 0)
(0.00147409993881 -1.65451442052e-05 0)
(0.00147971254691 -6.11612396397e-06 0)
(0.00148026425337 4.33833222922e-06 0)
(0.00147578974739 1.45946875174e-05 0)
(0.0014664221801 2.44529902293e-05 0)
(0.00145238041667 3.37476699941e-05 0)
(0.00143395315447 4.23507033682e-05 0)
(0.00141148312012 5.01680522428e-05 0)
(0.00138535354387 5.71326370294e-05 0)
(0.00135597752851 6.3197394023e-05 0)
(0.00132378970261 6.83305815232e-05 0)
(0.0012892390833 7.251383203e-05 0)
(0.00125278217769 7.57424207063e-05 0)
(0.00121487568269 7.80268248973e-05 0)
(0.0011759685261 7.93945510189e-05 0)
(0.00113649337796 7.98912761852e-05 0)
(0.00109685809468 7.95805996767e-05 0)
(0.00105743776309 7.85420977366e-05 0)
(0.00101856804133 7.68678095629e-05 0)
(0.000980540356397 7.4657633724e-05 0)
(0.000943599270733 7.2014296416e-05 0)
(0.000907942046624 6.90385535585e-05 0)
(0.000873720188715 6.58251435178e-05 0)
(0.000841042574102 6.24597920077e-05 0)
(0.000809979700831 5.90173521437e-05 0)
(0.000780568586978 5.55609932765e-05 0)
(0.000752817909806 5.21422474505e-05 0)
(0.000726713060734 4.88016823959e-05 0)
(0.000702220885314 4.55699747739e-05 0)
(0.000679293963487 4.24691916891e-05 0)
(0.000657874356417 3.95141322386e-05 0)
(0.000637896799938 3.6713626662e-05 0)
(0.000619291362006 3.40717286164e-05 0)
(0.000601985604961 3.1588767397e-05 0)
(0.000585906306195 2.92622479121e-05 0)
(0.000570980795699 2.70876015662e-05 0)
(0.000557137968674 2.50587990264e-05 0)
(0.00054430902774 2.31688411585e-05 0)
(0.000532428003849 2.14101451886e-05 0)
(0.000521432098752 1.9774843778e-05 0)
(0.000511261885513 1.8255012671e-05 0)
(0.000501861397457 1.68428416647e-05 0)
(0.000493178130328 1.55307610215e-05 0)
(0.000485162977477 1.43115344393e-05 0)
(0.000477770113478 1.31783273626e-05 0)
(0.000470956837784 1.21247588471e-05 0)
(0.000464683386754 1.11449434293e-05 0)
(0.000458912719536 1.02335294319e-05 0)
(0.000453610280872 9.38573897699e-06 0)
(0.000448743741816 8.59741547613e-06 0)
(0.000444282717655 7.86508372783e-06 0)
(0.000440198461096 7.18602862673e-06 0)
(0.000436463528168 6.55839810011e-06 0)
(0.000433051414796 5.98133660229e-06 0)
(0.000429936164203 5.45515427566e-06 0)
(0.000427091950567 4.98153524183e-06 0)
(0.000424492654785 4.56378190653e-06 0)
(0.000422111467098 4.20707879648e-06 0)
(0.00041992058446 3.91872781052e-06 0)
(0.000417891125607 3.70823931431e-06 0)
(0.000415993474163 3.58701302956e-06 0)
(0.000414198383932 3.56700618779e-06 0)
(0.000412479307326 3.65700742882e-06 0)
(0.000410816260595 3.85327485269e-06 0)
(0.000409199834697 4.11726352623e-06 0)
(0.000407625990368 4.32916750974e-06 0)
(0.00121694753294 0.000182395308268 0)
(0.00124916046443 0.00035780569856 0)
(0.00126586259107 0.000406341142843 0)
(0.00125623956883 0.000392775051478 0)
(0.001226065172 0.000355212735873 0)
(0.00118364622795 0.000311511437096 0)
(0.00113552844859 0.000269170541497 0)
(0.00108608293302 0.000230949654189 0)
(0.00103799354202 0.000197529474828 0)
(0.000992788556573 0.000168727481787 0)
(0.000951249295797 0.000144045189214 0)
(0.000913692660192 0.000122908944737 0)
(0.000880157554461 0.000104770274391 0)
(0.000850524607702 8.91422905009e-05 0)
(0.000824591527594 7.56076943216e-05 0)
(0.000802119623087 6.38149096436e-05 0)
(0.000782861872298 5.34699723682e-05 0)
(0.000766579317275 4.4327589519e-05 0)
(0.000753050159117 3.61827918963e-05 0)
(0.000742074348418 2.88636780854e-05 0)
(0.000733475444213 2.22253310995e-05 0)
(0.000727100858551 1.61448168033e-05 0)
(0.000722821184455 1.05171155012e-05 0)
(0.000720529037908 5.25183231931e-06 0)
(0.000720137674454 2.70547532889e-07 0)
(0.000721579531372 -4.49530836213e-06 0)
(0.000724804775945 -9.1061368401e-06 0)
(0.000729779904565 -1.36155204542e-05 0)
(0.000736486403228 -1.80712628806e-05 0)
(0.000744919454289 -2.25161613529e-05 0)
(0.000755086666927 -2.69885403168e-05 0)
(0.000767006797226 -3.15225605619e-05 0)
(0.000780708414853 -3.61483083267e-05 0)
(0.000796228465289 -4.08916603298e-05 0)
(0.000813610668995 -4.57739143094e-05 0)
(0.00083290369177 -5.08111699219e-05 0)
(0.00085415901412 -5.60134434941e-05 0)
(0.000877428422502 -6.13835024392e-05 0)
(0.000902761043107 -6.6915413923e-05 0)
(0.000930199841288 -7.25928188608e-05 0)
(0.000959777519366 -7.8386970173e-05 0)
(0.000991511765783 -8.42546147932e-05 0)
(0.00102539984327 -9.0135854654e-05 0)
(0.00106141255727 -9.59521904838e-05 0)
(0.00109948772156 -0.00010160502907 0)
(0.00113952333763 -0.000106975005829 0)
(0.00118137082377 -0.000111922520069 0)
(0.00122482875883 -0.000116289870234 0)
(0.00126963772174 -0.000119905281364 0)
(0.00131547688061 -0.00012258891562 0)
(0.00136196297597 -0.000124160658696 0)
(0.00140865222205 -0.000124449131632 0)
(0.00145504541155 -0.000123301089312 0)
(0.00150059618743 -0.000120590251562 0)
(0.00154472211741 -0.000116224757034 0)
(0.00158681797126 -0.000110152822172 0)
(0.00162627053318 -0.000102366694177 0)
(0.00166247438768 -9.29053917485e-05 0)
(0.0016948483271 -8.18568571744e-05 0)
(0.00172285224683 -6.93599484098e-05 0)
(0.00174600454727 -5.56061480715e-05 0)
(0.00176390000045 -4.08397567688e-05 0)
(0.0017762274193 -2.53537531967e-05 0)
(0.00178278512481 -9.47783832922e-06 0)
(0.00178349093385 6.44250088207e-06 0)
(0.00177838363617 2.20722724932e-05 0)
(0.00176761508587 3.711145467e-05 0)
(0.00175143484468 5.13111262543e-05 0)
(0.00173017127509 6.44779820429e-05 0)
(0.00170421323418 7.64687418224e-05 0)
(0.00167399502085 8.71796225135e-05 0)
(0.00163998501965 9.65363055467e-05 0)
(0.00160267694952 0.000104487443743 0)
(0.00156258225378 0.000111002162075 0)
(0.00152022249142 0.000116070637354 0)
(0.00147612105459 0.000119706422067 0)
(0.0014307939756 0.000121949076139 0)
(0.00138474002142 0.000122865745925 0)
(0.00133843065968 0.000122550674059 0)
(0.00129230071513 0.000121122205603 0)
(0.00124674055465 0.000118717497234 0)
(0.00120209045818 0.000115485647883 0)
(0.00115863752353 0.000111580229913 0)
(0.00111661511229 0.000107152189289 0)
(0.00107620455482 0.000102343863088 0)
(0.00103753864459 9.72845426497e-05 0)
(0.00100070637568 9.20876938772e-05 0)
(0.000965758392626 8.68497027721e-05 0)
(0.000932712697275 8.1649868266e-05 0)
(0.000901560259332 7.65513091909e-05 0)
(0.000872270283541 7.16024619796e-05 0)
(0.000844794980209 6.68388940706e-05 0)
(0.000819073761767 6.22852209548e-05 0)
(0.000795036844274 5.79569782506e-05 0)
(0.00077260827144 5.38623545452e-05 0)
(0.000751708402932 5.00037339344e-05 0)
(0.00073225592195 4.63790280194e-05 0)
(0.000714169422365 4.29827983002e-05 0)
(0.000697368635781 3.98071824623e-05 0)
(0.000681775355526 3.68426452595e-05 0)
(0.000667314109382 3.40785772828e-05 0)
(0.000653912626778 3.15037654157e-05 0)
(0.000641502139816 2.91067572139e-05 0)
(0.000630017551421 2.68761396022e-05 0)
(0.000619397498184 2.48007496381e-05 0)
(0.000609584330366 2.2869832957e-05 0)
(0.000600524026979 2.10731630969e-05 0)
(0.000592166059912 1.94011332601e-05 0)
(0.000584463217689 1.78448303017e-05 0)
(0.000577371396499 1.63960997648e-05 0)
(0.000570849363796 1.50476096912e-05 0)
(0.000564858497753 1.37929205381e-05 0)
(0.000559362504466 1.26265678993e-05 0)
(0.00055432711394 1.15441645463e-05 0)
(0.000549719755883 1.05425274986e-05 0)
(0.00054550921746 9.61983476784e-06 0)
(0.000541665287994 8.77581349031e-06 0)
(0.000538158401005 8.01195564437e-06 0)
(0.0005349592932 7.33174589273e-06 0)
(0.000532038714757 6.74086370865e-06 0)
(0.000529367247458 6.24727775731e-06 0)
(0.000526915318334 5.86106461457e-06 0)
(0.00052465353362 5.59361367856e-06 0)
(0.000522553481639 5.45554012572e-06 0)
(0.000520589082111 5.45194455039e-06 0)
(0.000518738097591 5.57236626392e-06 0)
(0.000516981639073 5.77105571204e-06 0)
(0.00051529544897 5.93540997515e-06 0)
(0.00121287131823 0.000152576459351 0)
(0.00124184412769 0.000326438811372 0)
(0.0012660948742 0.000396755161538 0)
(0.00127268048455 0.000405398448069 0)
(0.00126185081482 0.000383593408056 0)
(0.00123823902115 0.000349161504324 0)
(0.00120667468852 0.000311202587951 0)
(0.00117098428569 0.000274053528004 0)
(0.0011338983476 0.000239600932202 0)
(0.00109725397842 0.000208505381384 0)
(0.0010622285475 0.000180831983869 0)
(0.00102953492506 0.000156372410895 0)
(0.000999568686315 0.000134808155669 0)
(0.000972514165507 0.000115791879937 0)
(0.000948419002609 9.89863512025e-05 0)
(0.000927245708096 8.40814552299e-05 0)
(0.000908906880455 7.08000087566e-05 0)
(0.000893288968787 5.88980234179e-05 0)
(0.000880268089895 4.81623986347e-05 0)
(0.000869720377259 3.84075981922e-05 0)
(0.000861528592938 2.9472102872e-05 0)
(0.00085558620307 2.12150236728e-05 0)
(0.000851799744807 1.3513043772e-05 0)
(0.000850090052043 6.25774571888e-06 0)
(0.000850392726127 -6.46674646906e-07 0)
(0.000852658107611 -7.28532332499e-06 0)
(0.00085685092062 -1.37341788593e-05 0)
(0.000862949706834 -2.00613933774e-05 0)
(0.000870946111749 -2.63282943778e-05 0)
(0.000880844051786 -3.25901225281e-05 0)
(0.000892658773781 -3.88965160384e-05 0)
(0.000906415798593 -4.52917428174e-05 0)
(0.000922149725494 -5.18146739372e-05 0)
(0.000939902861318 -5.84984845988e-05 0)
(0.000959723627172 -6.53700632495e-05 0)
(0.000981664685583 -7.24491055385e-05 0)
(0.0010057807223 -7.97468696617e-05 0)
(0.00103212581003 -8.72645740079e-05 0)
(0.00106075027735 -9.49914303244e-05 0)
(0.00109169700652 -0.000102902327723 0)
(0.00112499709123 -0.000110955219291 0)
(0.00116066480327 -0.000119088315983 0)
(0.00119869184952 -0.000127217265096 0)
(0.00123904095306 -0.000135232580851 0)
(0.00128163886891 -0.000142997696907 0)
(0.00132636905059 -0.000150348107988 0)
(0.00137306431488 -0.000157092134281 0)
(0.00142150000213 -0.000163013837499 0)
(0.00147138827244 -0.000167878499417 0)
(0.00152237427956 -0.000171440808441 0)
(0.00157403497395 -0.000173455493331 0)
(0.00162588116107 -0.000173689661051 0)
(0.00167736316329 -0.000171935676293 0)
(0.00172788003973 -0.000168023236477 0)
(0.0017767919052 -0.000161829483598 0)
(0.00182343459119 -0.000153286549999 0)
(0.00186713581688 -0.000142386669598 0)
(0.00190723220036 -0.000129185574052 0)
(0.00194308673618 -0.000113805077239 0)
(0.0019741066701 -9.64355199045e-05 0)
(0.00199976198355 -7.7338142435e-05 0)
(0.00201960483561 -5.68460365728e-05 0)
(0.00203328969317 -3.53597380584e-05 0)
(0.00204059191965 -1.33317946077e-05 0)
(0.00204142036466 8.76217255134e-06 0)
(0.00203581953763 3.04606742207e-05 0)
(0.00202396000122 5.13510694867e-05 0)
(0.00200611958539 7.10920821947e-05 0)
(0.00198266069131 8.9419390587e-05 0)
(0.00195400921211 0.000106136744343 0)
(0.00192063832415 0.00012110060514 0)
(0.00188305718893 0.000134206338644 0)
(0.00184180264995 0.000145379896843 0)
(0.00179743188448 0.000154575047313 0)
(0.00175051467273 0.000161774605435 0)
(0.00170162458381 0.000166993862762 0)
(0.00165132886067 0.000170284325802 0)
(0.00160017727923 0.000171735926347 0)
(0.00154869072244 0.000171476313476 0)
(0.00149735048956 0.000169666652118 0)
(0.00144658936507 0.000166494251468 0)
(0.00139678522736 0.000162163050778 0)
(0.00134825758461 0.000156883334284 0)
(0.00130126700787 0.000150862009283 0)
(0.00125601709357 0.000144294457253 0)
(0.00121265838387 0.000137358516215 0)
(0.00117129360723 0.000130210718449 0)
(0.00113198364144 0.000122984583711 0)
(0.00109475370303 0.000115790581171 0)
(0.00105959939139 0.000108717308702 0)
(0.00102649233644 0.000101833458188 0)
(0.000995385300624 9.51902035522e-05 0)
(0.00096621666513 8.88237330447e-05 0)
(0.000938914286201 8.27577308964e-05 0)
(0.00091339874529 7.70056843052e-05 0)