/*--------------------------------*- C++ -*----------------------------------*\
  =========                 |
  \\      /  F ield         | OpenFOAM: The Open Source CFD Toolbox
   \\    /   O peration     | Website:  https://openfoam.org
    \\  /    A nd           | Version:  7
     \\/     M anipulation  |
\*---------------------------------------------------------------------------*/
FoamFile
{
    version     2.0;
    format      ascii;
    class       volScalarField;
    location    "8.849952e+08";
    object      K;
}
// * * * * * * * * * * * * * * * * * * * * * * * * * * * * * * * * * * * * * //

dimensions      [0 2 0 0 0 0 0];

internalField   nonuniform List<scalar> 
80
(
2.6201e-10
2.6201e-10
2.6201e-10
2.6201e-10
2.6201e-10
2.61907e-10
2.5248e-10
2.13556e-10
1.45386e-10
7.69588e-11
3.68068e-11
2.10111e-11
1.53545e-11
1.32257e-11
1.23945e-11
1.2068e-11
1.19407e-11
1.18914e-11
1.18725e-11
1.18652e-11
1.18624e-11
1.18614e-11
1.18609e-11
1.18607e-11
1.18606e-11
1.18606e-11
1.18606e-11
1.18606e-11
1.18606e-11
1.18606e-11
1.18606e-11
1.18606e-11
1.18606e-11
1.18606e-11
1.18606e-11
1.18605e-11
1.18605e-11
1.18605e-11
1.18605e-11
1.18605e-11
1.18605e-11
1.18605e-11
1.18605e-11
1.18605e-11
1.18605e-11
1.18605e-11
1.18605e-11
1.18605e-11
1.18605e-11
1.18605e-11
1.18605e-11
1.18605e-11
1.18605e-11
1.18605e-11
1.18605e-11
1.18605e-11
1.18605e-11
1.18605e-11
1.18605e-11
1.18605e-11
1.18605e-11
1.18605e-11
1.18605e-11
1.18605e-11
1.18605e-11
1.18605e-11
1.18605e-11
1.18605e-11
1.18605e-11
1.18605e-11
1.18605e-11
1.18605e-11
1.18605e-11
1.18605e-11
1.18605e-11
1.18605e-11
1.18604e-11
1.18604e-11
1.18604e-11
1.18604e-11
)
;

boundaryField
{
    outlet
    {
        type            zeroGradient;
    }
    inlet
    {
        type            zeroGradient;
    }
    frontAndBack
    {
        type            empty;
    }
}


// ************************************************************************* //
