/*--------------------------------*- C++ -*----------------------------------*\
  =========                 |
  \\      /  F ield         | OpenFOAM: The Open Source CFD Toolbox
   \\    /   O peration     | Website:  https://openfoam.org
    \\  /    A nd           | Version:  7
     \\/     M anipulation  |
\*---------------------------------------------------------------------------*/
FoamFile
{
    version     2.0;
    format      ascii;
    class       volScalarField;
    location    "60";
    object      Ci;
}
// * * * * * * * * * * * * * * * * * * * * * * * * * * * * * * * * * * * * * //

dimensions      [0 -3 0 0 1 0 0];

internalField   nonuniform List<scalar> 
8192
(
10.0000000251
9.99999991382
9.99999971837
9.99999950252
9.99999931636
9.99999913102
9.99999893587
9.99999870558
9.99999841627
9.99999804857
9.99999759023
9.99999703393
9.99999637712
9.99999561927
9.99999476176
9.9999938059
9.9999927531
9.9999916038
9.99999035765
9.9999890129
9.99998756649
9.99998601388
9.99998434889
9.99998256408
9.99998065057
9.99997859908
9.99997639973
9.99997404374
9.99997152303
9.99996883241
9.99996596827
9.99996293116
9.99995972284
9.99995634926
9.99995281651
9.99994913178
9.99994530314
9.99994132352
9.99993717924
9.99993276083
9.99992784405
9.99992175082
9.99991309908
9.99989874266
9.99987266537
9.99982321734
9.99972981352
9.999556959
9.9992467897
9.99870846585
9.99780491779
9.99633807138
9.9940296283
9.9905093642
9.98515130941
9.977240573
9.9659254269
9.95019733278
9.92891130347
9.90082106949
9.86462810149
9.81904200902
9.76284670549
9.69496756434
9.61453217117
9.52092231793
9.41380875187
9.29317403808
9.15931073307
9.01282008156
8.85456818782
8.68569029052
8.50746836473
8.32111120945
8.12148807632
7.91072261478
7.69074224722
7.46336662646
7.23034892072
6.99338761008
6.75412034031
6.51410766607
6.27481236857
6.03757850906
5.80361325168
5.57397339562
5.34955765244
5.13110484017
4.91919757498
4.71427056954
4.51662246438
4.32643001742
4.14376357594
3.96860278325
3.80085144475
3.64034948506
3.48687657402
3.34012712214
3.19959402009
3.06408188814
2.93239261953
2.80433047115
2.67999996728
2.55955495861
2.44311828098
2.33076323965
2.22251582667
2.11836264301
2.0182593801
1.92213828118
1.82991429666
1.7414900115
1.65675955547
1.57561167431
1.49793214371
1.42360565416
1.35251728827
1.28455371357
1.21960418956
1.15756181183
1.0983253863
1.0418049948
0.987934998158
0.936719450226
0.888342734462
0.843557264771
0.804562641403
0.778195605673
9.999999977
9.99999981695
9.99999959688
9.99999940717
9.99999925144
9.99999911569
9.99999896902
9.99999877824
9.99999851698
9.99999816507
9.99999771088
9.99999714758
9.99999647387
9.99999569007
9.99999479885
9.99999380236
9.99999270315
9.99999150235
9.99999020048
9.99998879631
9.99998728725
9.99998566892
9.999983935
9.99998207775
9.99998008752
9.99997795444
9.99997566759
9.99997321797
9.99997059682
9.99996779994
9.99996482356
9.99996167108
9.99995834403
9.99995485191
9.99995120141
9.99994739837
9.99994346111
9.9999393609
9.99993512034
9.99993053316
9.99992538674
9.99991855165
9.99990811075
9.99988885244
9.99985129826
9.99977575564
9.99962774802
9.99934614491
9.99883118623
9.99792525536
9.99639054282
9.99388662605
9.98993717755
9.98392466993
9.97503593644
9.96227027853
9.94445242075
9.92025826393
9.88826012703
9.84699064622
9.79501897786
9.73103422869
9.65392412654
9.56284515354
9.45727099588
9.33702682266
9.2022900781
9.05358878826
8.89175091372
8.71790180772
8.53334137216
8.33964426403
8.13827380191
7.93129233242
7.71925973689
7.502965586
7.28331710831
7.06126834472
6.83777751738
6.61378295717
6.39019014838
6.16786416857
5.94762376354
5.73023500415
5.51640400577
5.30676911666
5.10189355602
4.90225947289
4.7082642533
4.52021947821
4.33835262332
4.16281121856
3.99366903907
3.83093368409
3.6745549931
3.52443297389
3.3804246349
3.24233729377
3.10993278487
2.98118546079
2.85434559502
2.7304506237
2.61001367623
2.49330309407
2.38045946934
2.2715476755
2.16658252827
2.06554328676
1.96838304196
1.87503543167
1.78541975175
1.69944495916
1.61701285855
1.53802064716
1.46236295036
1.38993346454
1.32062624449
1.25433683642
1.19096302428
1.13040610793
1.07257104797
1.017371472
0.964728368955
0.914608353424
0.867010352955
0.822332636697
0.781122797649
0.750793613497
9.99999998351
9.99999986114
9.99999969234
9.99999953765
9.99999941447
9.99999929957
9.99999915716
9.99999894911
9.99999864535
9.99999822165
9.99999766578
9.99999697081
9.99999613839
9.99999517129
9.9999940764
9.9999928586
9.99999152413
9.99999007618
9.99998851797
9.99998685009
9.99998507223
9.99998318293
9.99998117893
9.9999790581
9.99997681559
9.99997445068
9.99997195889
9.99996934334
9.99996660116
9.99996374174
9.99996076187
9.99995767913
9.99995448514
9.99995120259
9.99994782403
9.99994435205
9.99994082677
9.99993713104
9.99993340034
9.99992898746
9.99992367074
9.99991444932
9.99989762218
9.99986081295
9.99978458562
9.99962566396
9.99931388015
9.99872285962
9.99765560235
9.99580339212
9.99271660927
9.98776247447
9.98009115087
9.96861378553
9.95199338977
9.92866224855
9.89686825961
9.85475348461
9.80045685337
9.73223780533
9.64860163876
9.54841961215
9.43101764669
9.29623635242
9.14443768352
8.97648827627
8.79368211271
8.5976753379
8.39035000301
8.17376888522
7.9499986509
7.72115875687
7.48916365307
7.25593963022
7.02308974734
6.79191072253
6.56341474828
6.33835900471
6.11728331492
5.90055362641
5.68840729461
5.48099570547
5.27842045471
5.08076081656
4.88809167449
4.70049257899
4.51804955876
4.3408517276
4.16898491544
4.00252419222
3.84152681632
3.68602651834
3.53602970599
3.39151352741
3.25242609366
3.11868696785
2.99019284637
2.86680351275
2.74841527236
2.63453187448
2.52433332118
2.41748788322
2.31386716235
2.21342487696
2.11614456187
2.02201667871
1.93102864196
1.84316071354
1.75838469793
1.67666399706
1.59795434577
1.52220485664
1.44935918645
1.37935672891
1.31213373752
1.24762446687
1.18576204112
1.12647973395
1.06971101571
1.01539244524
0.963459261173
0.913860225657
0.86652149092
0.821459930504
0.778459857864
0.738238361069
0.698189400133
0.675212466176
9.99999997521
9.99999991831
9.99999980562
9.9999997344
9.99999969506
9.9999996444
9.9999995542
9.99999938223
9.99999909651
9.99999867088
9.99999808928
9.99999734228
9.9999964294
9.99999535449
9.99999412635
9.99999275521
9.99999125181
9.99998962743
9.99998788965
9.9999860488
9.99998410685
9.99998207421
9.99997994674
9.99997773779
9.99997543802
9.99997306701
9.99997061148
9.99996810001
9.99996551397
9.99996289507
9.99996020984
9.99995752244
9.99995476865
9.99995204005
9.99994926035
9.99994648674
9.99994378149
9.9999408502
9.99993812763
9.9999337667
9.99992781063
9.99991236166
9.99988085337
9.99980404684
9.99964489796
9.99931028783
9.99866779798
9.99746632017
9.99534547707
9.99173308311
9.98584054002
9.97656923009
9.96250516712
9.94188393939
9.91262419303
9.87239079038
9.81870507576
9.74910379149
9.66131693052
9.55346596463
9.42423507453
9.27301909103
9.09999662978
8.9061519005
8.69320752328
8.46352457612
8.21993037864
7.96555602319
7.70362980355
7.43734179187
7.16967228144
6.9033246964
6.64061038879
6.38344460308
6.13332025524
5.89130812085
5.65807910491
5.43394579624
5.21891920709
5.0127753468
4.81512438208
4.62547672494
4.44330012145
4.26806591946
4.09928191352
3.93651349891
3.77939369173
3.62762435033
3.48097099888
3.33925356843
3.20233511368
3.07011007343
2.9424933763
2.81941082954
2.70079200445
2.58656333104
2.47664807152
2.37095307674
2.26939602684
2.17184571874
2.07803321911
1.98769000739
1.9005898662
1.81655411301
1.73544461998
1.65715418526
1.5815976876
1.50870498022
1.43841556776
1.37067480114
1.30543126805
1.24263510486
1.18223695105
1.12418746592
1.06843703246
1.01493609196
0.963634775203
0.914484716108
0.867436005689
0.822446215285
0.779459268402
0.738461931255
0.699332705145
0.662269625015
0.626512795915
0.594458630715
0.55720522595
0.551142779017
9.99999998364
9.99999998901
9.99999997563
10.0000000036
10.0000000537
10.0000000739
10.0000000223
9.9999998894
9.99999964326
9.99999926331
9.99999873653
9.99999805535
9.99999721789
9.99999622766
9.99999508985
9.99999381599
9.99999241223
9.99999089581
9.99998926734
9.99998755032
9.99998573377
9.99998385173
9.99998187695
9.99997986085
9.99997775718
9.99997564109
9.99997344623
9.99997127527
9.99996903706
9.99996686983
9.99996463471
9.99996253572
9.99996033788
9.99995835575
9.99995626277
9.99995439272
9.99995262781
9.99995057096
9.99994894896
9.99994369392
9.99993543412
9.99990650978
9.99984701187
9.99969565859
9.9993923328
9.99875631701
9.99757389615
9.99539196888
9.99163988541
9.98535276918
9.97531527195
9.95979400871
9.9366935956
9.90342348208
9.85707538385
9.7945076433
9.71256195293
9.60831838108
9.47933628377
9.32392260207
9.14130192651
8.93177049124
8.69669127772
8.43846306146
8.16033245746
7.86622624628
7.56046907828
7.24756499773
6.93192507015
6.61769913921
6.30859742176
6.00779384808
5.71784755378
5.4406778923
5.17757644705
4.92924483155
4.69585342253
4.47711935257
4.27239734727
4.08077893093
3.90118787365
3.73247057127
3.57346740483
3.42307480117
3.28028080024
3.14419538845
3.01405827629
2.88923845988
2.76922613399
2.65361982736
2.54211077849
2.434466406
2.33051429832
2.23012736065
2.13321123682
2.03969285039
1.94951318528
1.86261791141
1.77895585884
1.69847707908
1.62110247707
1.54672794986
1.47523644753
1.40650870078
1.34043034277
1.27689565683
1.21580887361
1.15708393739
1.10064345229
1.04641730966
0.994341264104
0.944355705164
0.89640452742
0.850434512724
0.806394351018
0.764235215341
0.723908460171
0.685370513778
0.648571329986
0.613482415506
0.580028454159
0.548259589758
0.517905922133
0.489564598563
0.461420259109
0.438628522026
0.405464946099
0.410420285081
9.99999998174
10.000000029
10.0000000568
10.0000001779
10.0000003442
10.000000469
10.0000004959
10.0000004034
10.0000002034
9.99999987787
9.99999942297
9.99999884043
9.99999813082
9.99999730333
9.99999635724
9.99999531041
9.99999415347
9.99999291767
9.99999157449
9.99999017885
9.99998866943
9.99998714145
9.99998548554
9.99998385736
9.9999820862
9.9999804035
9.99997857006
9.99997689681
9.99997507108
9.99997348765
9.99997172867
9.99997032609
9.99996865467
9.99996752465
9.99996599681
9.99996518737
9.99996410496
9.99996306468
9.99996187957
9.99995465251
9.99994077525
9.99988979645
9.99978569274
9.9995219923
9.99901129386
9.99794994475
9.99603770009
9.99253875699
9.98666686353
9.97691529625
9.96164270727
9.93828030441
9.90408679093
9.8554978866
9.78890803915
9.70043886391
9.5865296528
9.44416638608
9.27115171496
9.06643136521
8.83015407808
8.5638480901
8.27020008828
7.95306475227
7.61700299393
7.26724618789
6.90912562224
6.54808767343
6.18913205449
5.83695322744
5.49549626338
5.16814013498
4.85745113995
4.56524450248
4.29265170925
4.04014245183
3.8075741092
3.59427520751
3.39914432037
3.22077486308
3.05756154093
2.90783167938
2.76990511232
2.64222237296
2.52331145971
2.41193729929
2.30697894041
2.20748448801
2.1126692526
2.02190519282
1.93470205513
1.85068745264
1.76958661694
1.69120302678
1.6154008607
1.54208952522
1.47121075358
1.40272801702
1.33661732145
1.27286309689
1.21144920636
1.15235264853
1.09554100767
1.04097265645
0.988598440504
0.938363866152
0.890211192796
0.844081157104
0.799914225109
0.757651461953
0.71723498739
0.678608364777
0.641716473994
0.60650609748
0.57292475176
0.540923318633
0.510450265305
0.481464835654
0.453907172366
0.42776772368
0.402924583177
0.379531144406
0.357077430751
0.336697093614
0.315406133984
0.300667894581
0.273209376947
0.28218292372
9.99999999678
10.0000000832
10.0000001671
10.0000003545
10.0000006072
10.0000008214
10.0000009239
10.0000008863
10.0000007166
10.0000004378
10.000000043
9.99999954687
9.99999894978
9.99999827413
9.99999750569
9.99999668279
9.99999576241
9.99999481645
9.99999375041
9.99999269965
9.99999148559
9.99999035015
9.99998899078
9.99998780487
9.99998632765
9.99998514799
9.99998361792
9.99998251994
9.99998102852
9.99998009399
9.99997871481
9.99997802981
9.99997676629
9.99997645727
9.9999753062
9.99997557843
9.99997471944
9.99997497811
9.99997275638
9.99996358371
9.99993890755
9.99986148687
9.99969602977
9.9992984644
9.99853261291
9.99697135693
9.99418583627
9.98911490732
9.98069624359
9.96674056059
9.94516208794
9.91229969397
9.86494778431
9.79829887035
9.70860108576
9.59118531341
9.44294331258
9.26116867955
9.04441669933
8.7927306182
8.50748212827
8.19163232289
7.84909333638
7.4850743782
7.10490796044
6.71487685636
6.32038402994
5.92771121226
5.54111026637
5.16628727646
4.80546060635
4.46391117113
4.14093196419
3.83688732257
3.55392740713
3.29342272845
3.05593997339
2.84134433169
2.64880576405
2.4770580108
2.32430543211
2.18875598495
2.06809088228
1.96072223444
1.86390044306
1.77726451734
1.69667447176
1.62097748452
1.54937331697
1.48123800222
1.41604382164
1.35337599745
1.29291988415
1.23444596438
1.17779481582
1.12286283993
1.06958905279
1.01794382317
0.967918757336
0.919519193022
0.872757615292
0.827648074501
0.784201919004
0.74242494976
0.70231586723
0.663865756436
0.627058292419
0.59187042468
0.558273251059
0.526233070824
0.495712217164
0.466670240783
0.439064111575
0.412850189477
0.387982139155
0.364417226905
0.342104344653
0.321011399548
0.301066593676
0.282288857623
0.264498994418
0.247966210868
0.231952914104
0.218007495847
0.202483226146
0.193552773318
0.17256946022
0.181284374903
9.99999999653
10.000000105
10.0000001955
10.0000004273
10.0000007621
10.0000010739
10.0000012642
10.000001298
10.0000011735
10.0000009326
10.0000005839
10.0000001536
9.9999996358
9.99999907619
9.99999843325
9.99999778621
9.99999703154
9.99999632003
9.99999544312
9.99999468227
9.99999366139
9.99999287337
9.99999169725
9.99999092681
9.99998961975
9.99998893816
9.99998757237
9.99998706059
9.99998574043
9.99998545976
9.99998427406
9.99998425396
9.99998322707
9.99998353827
9.99998269365
9.99998363159
9.99998301327
9.9999840714
9.99998022623
9.99996900302
9.999929987
9.99982776852
9.99958994715
9.99905969909
9.99799152577
9.99585541184
9.99193612181
9.98486613428
9.97299580685
9.95349636723
9.92345944058
9.87827687839
9.81420560735
9.72546033289
9.60898197192
9.45939728251
9.27633502335
9.05583189208
8.79816762239
8.50463824395
8.17798137101
7.82237452398
7.44283440589
7.04541879616
6.63595175156
6.2211529469
5.80620019778
5.39760327304
4.99870665254
4.61547589306
4.24883843433
3.89779979745
3.56588652565
3.25556112434
2.96857997857
2.70602102039
2.46825125862
2.25504775921
2.06555049272
1.89852240597
1.75220119552
1.62478268544
1.5140022098
1.41798437294
1.33433929026
1.26145645964
1.19731286739
1.1400836307
1.08836744378
1.04084222919
0.995306735258
0.951433323153
0.90898067667
0.867765543823
0.827661451113
0.78858929147
0.75050798317
0.71340575643
0.677292095683
0.642190793739
0.608134078605
0.575157732146
0.543297155654
0.512584355641
0.483045789684
0.454701006253
0.427561927574
0.40163272141
0.376909979339
0.35338338686
0.33103616355
0.309846445634
0.289786992314
0.270828394537
0.25293503898
0.236075878777
0.220204372091
0.205302256501
0.191290019345
0.178215857694
0.165860523467
0.154568866005
0.14350134736
0.134310920534
0.123425081374
0.118187025422
0.103281800836
0.110022603721
10.0000000082
10.0000001476
10.0000002722
10.0000005269
10.0000009
10.0000012706
10.0000015242
10.0000016155
10.0000015354
10.0000013259
10.0000010087
10.0000006257
10.0000001558
9.9999996779
9.99999911082
9.99999858948
9.99999793407
9.9999973922
9.99999662586
9.99999607739
9.99999516733
9.99999463803
9.99999356847
9.99999311302
9.99999190923
9.99999161153
9.99999034252
9.99999029258
9.99998904224
9.99998930152
9.99998811802
9.99998869606
9.99998757981
9.99998848823
9.99998756794
9.99998899978
9.99998855898
9.9999895388
9.99998516308
9.99996972289
9.99992057794
9.99978918377
9.99947589504
9.9987728094
9.99731476087
9.99443720539
9.98908070917
9.97958702093
9.96355901969
9.93778277198
9.89810211365
9.83979964755
9.75754710084
9.64636164021
9.50167768873
9.32023841821
9.10072547811
8.8429489815
8.55051684217
8.22298907752
7.86440202361
7.47948549968
7.07451542033
6.65511339187
6.2285466712
5.79972457459
5.37614424912
4.96056823822
4.56058112758
4.17541881341
3.80434361966
3.4510053287
3.1184508708
2.80900247825
2.52421514749
2.26493268281
2.0312944024
1.82287222428
1.63867204657
1.47734789974
1.33714874227
1.21621650594
1.11243719957
1.02381285721
0.948229231092
0.883808738359
0.828729268334
0.78140171881
0.740230120024
0.704197662086
0.671731361481
0.64235936372
0.614370828222
0.587045285138
0.560286085514
0.534034408047
0.508265367566
0.482980536723
0.458201121179
0.433961901122
0.410306004189
0.387280520411
0.364932925635
0.343308274451
0.32244708277
0.302383864934
0.283146176865
0.264754218198
0.247220641352
0.230551009989
0.214743797931
0.199791896164
0.185681548219
0.172396624793
0.159912420353
0.148210274576
0.137250696988
0.127028987167
0.117466322606
0.108628494093
0.100291800384
0.0928076652545
0.0853875633784
0.0794975310751
0.0721680400601
0.0691131901125
0.0591623747767
0.0637283952469
10.0000000065
10.0000001606
10.0000002906
10.0000005582
10.0000009618
10.000001382
10.0000016922
10.0000018355
10.0000017959
10.0000016157
10.000001319
10.0000009658
10.0000005215
10.0000000924
9.99999957002
9.999999124
9.99999853451
9.99999809016
9.99999740888
9.99999697134
9.99999616774
9.9999957554
9.9999948225
9.99999448742
9.99999345652
9.99999328816
9.99999220961
9.99999232179
9.99999120758
9.99999172666
9.99999047159
9.99999154548
9.99998990751
9.99999178337
9.99998964744
9.99999280164
9.99999033934
9.99999364976
9.99998579984
9.99996986281
9.99990667316
9.99974233271
9.99934322022
9.9984372476
9.99657015193
9.99285207754
9.98601485059
9.97386388697
9.95363957082
9.92122389102
9.87205887047
9.80046473763
9.70091616771
9.56822552713
9.39778865861
9.18796352832
8.93666411998
8.64805846848
8.32255735513
7.97029007963
7.58940986668
7.18567189312
6.76493189059
6.33351094162
5.89779040182
5.46317619792
5.03617933147
4.62000967752
4.22113405927
3.83346991865
3.46140575588
3.10871313048
2.77840402507
2.47266435086
2.19283238062
1.9394730312
1.71243412493
1.5109904107
1.33391123785
1.17963678791
1.04631769976
0.931996670186
0.834604044585
0.752125596149
0.682564140782
0.624083226478
0.574928098718
0.53360624287
0.498636519587
0.46894075887
0.44330838498
0.421022549506
0.401112819902
0.383077342562
0.36594028523
0.349069096415
0.332422170697
0.315986490476
0.299771439888
0.283802600199
0.268116385016
0.252755517793
0.237765312487
0.223190719568
0.209074040479
0.195453290002
0.182361020701
0.169823731761
0.157861398267
0.146487786348
0.135710074567
0.12553042463
0.115944272692
0.106945211599
0.0985174303519
0.0906520754242
0.083317803454
0.0765189372981
0.0701860482354
0.0643862596831
0.0589242862319
0.0541011498286
0.049279189706
0.0455885863898
0.0408469479033
0.0390499262973
0.0327404739544
0.0355654444501
10.0000000128
10.000000194
10.0000003551
10.0000006285
10.0000010304
10.000001461
10.0000017937
10.0000019649
10.0000019488
10.0000017864
10.0000014994
10.0000011564
10.000000724
10.0000003101
9.99999981778
9.99999939527
9.99999886332
9.99999844141
9.99999785151
9.99999741973
9.99999675025
9.99999631266
9.99999556654
9.99999516925
9.99999437377
9.99999411903
9.99999327786
9.99999333347
9.99999233431
9.99999295855
9.99999145987
9.99999305852
9.99999043395
9.99999370255
9.99998930523
9.99999537326
9.9999887965
9.99999706333
9.99998216795
9.99997025613
9.99988626485
9.9996977089
9.99919963921
9.99810669402
9.99580319268
9.99126970401
9.98290478147
9.96813262681
9.94370796023
9.90475527969
9.84648386262
9.76205091353
9.64687699688
9.49415688832
9.30237002103
9.06746160209
8.79272485939
8.47864918659
8.1324098475
7.75916896964
7.36657743804
6.95482746078
6.5274390311
6.09314437699
5.65374909525
5.21991516291
4.79009719405
4.37806535386
3.97571593042
3.58504403027
3.2109218386
2.85752633939
2.52812345882
2.22496200218
1.9492750309
1.70138661727
1.48083083655
1.28652442922
1.11690224985
0.970093658471
0.844025337906
0.736563039029
0.64556139701
0.568965987258
0.504813052323
0.451315210284
0.406803476446
0.369842287631
0.339086762196
0.313459707595
0.291925446392
0.273728523378
0.25808475785
0.244523604868
0.232378014076
0.221444102548
0.210845549114
0.20040291586
0.190093718402
0.179915779188
0.169881858723
0.160014986174
0.150344502125
0.140902820657
0.131722830035
0.122835945107
0.11427060642
0.106051403313
0.0981982802237
0.0907266239843
0.0836465534005
0.0769643511154
0.0706804165965
0.0647940365175
0.0592957526491
0.0541828506132
0.0494321277402
0.0450515886259
0.0409865318138
0.0372935107898
0.0338224242502
0.030798938933
0.0277636686376
0.0254998053499
0.0225459103643
0.0214796836318
0.0176463113767
0.0192840331877
10.0000000112
10.0000002023
10.0000003764
10.0000006534
10.0000010523
10.0000014852
10.0000018283
10.0000020146
10.0000020105
10.0000018548
10.0000015675
10.0000012158
10.0000007828
10.0000003571
9.99999988046
9.99999944606
9.9999989565
9.99999851578
9.99999799849
9.9999975302
9.99999696231
9.99999646481
9.99999584174
9.99999536638
9.99999469193
9.9999943628
9.9999935812
9.99999362586
9.99999249398
9.99999332166
9.99999123735
9.99999357969
9.99998943986
9.99999460925
9.99998696702
9.9999971319
9.99998445478
10.0000003446
9.99997467744
9.99997182052
9.99986221709
9.99965824891
9.99905738854
9.99779528626
9.99505022365
9.98974963042
9.97983841145
9.96261420389
9.93400072005
9.88912497748
9.82214808598
9.72674246898
9.59774470157
9.42935155145
9.22094415959
8.96867984235
8.67933220289
8.35032658453
7.9962310556
7.61301138378
7.22126716596
6.81248518286
6.38931250095
5.95888901713
5.52250357622
5.08994119074
4.6597702972
4.24546772069
3.83556755905
3.43650946045
3.05424004415
2.6939154889
2.35952536329
2.05369302064
1.77770902975
1.53170586465
1.31486556812
1.12565854011
0.962058678578
0.821757586056
0.702318950991
0.60132002051
0.516423375567
0.445453815432
0.386404470993
0.337484167743
0.297076284111
0.263788066572
0.236373733735
0.213799314224
0.195137973525
0.179658782918
0.16668746899
0.155739826263
0.146327008517
0.138138630409
0.13084069974
0.124094622702
0.117514361921
0.111068415501
0.104742273229
0.0985343471846
0.0924523359329
0.0865101046946
0.0807250546308
0.0751160489366
0.0697017148379
0.0644993388189
0.0595238199713
0.054787493563
0.0502991972492
0.0460653685412
0.0420879965532
0.0383686409185
0.0349018058122
0.0316876527158
0.0287100906531
0.0259769975996
0.0234492477345
0.0211682915637
0.0190298737546
0.0171866622702
0.0153358552664
0.0139778188778
0.0122006735685
0.011568586704
0.00932120322356
0.0102274170123
10.0000000133
10.0000002274
10.0000004339
10.0000007158
10.0000010933
10.0000014999
10.0000018225
10.0000019999
10.0000019867
10.0000018257
10.0000015222
10.0000011492
10.0000006956
10.0000002451
9.99999975562
9.99999929949
9.9999988119
9.99999835146
9.9999978488
9.99999735762
9.99999680698
9.99999628139
9.99999566213
9.99999515614
9.99999445177
9.99999408988
9.99999322233
9.99999323033
9.99999191845
9.99999275035
9.99999025665
9.99999288539
9.99998766291
9.99999412178
9.99998361786
9.99999769492
9.99997831318
10.0000033923
9.99996382876
9.99997534981
9.99983440815
9.99962463129
9.99891961258
9.9974982789
9.9943384167
9.98828903662
9.97696017583
9.95744655404
9.92512599927
9.87521532485
9.80104617412
9.69765865444
9.55855573932
9.38156471968
9.16352925659
8.90664944997
8.61288996686
8.28747573207
7.9370642404
7.56635484853
7.18473064107
6.79339039987
6.3876445631
5.96942344344
5.54283679231
5.11130201221
4.68043685644
4.25471603145
3.82842518102
3.40998481334
3.00735217871
2.62771202665
2.27666173084
1.95776923483
1.67266181969
1.42133805789
1.20252745728
1.01406518133
0.853233603545
0.717060696472
0.602537509047
0.506779677008
0.427111819107
0.3611259094
0.306681415736
0.261916988624
0.225211553449
0.195186804607
0.170654104185
0.15062295697
0.134242386796
0.120820622974
0.109761934862
0.100596650696
0.0929208756489
0.0864171108972
0.080829661742
0.0759308441252
0.0715431304799
0.0673395935254
0.0632850987753
0.0593577833296
0.0555461910942
0.0518466759959
0.0482610926068
0.0447948821904
0.0414554206881
0.0382508558135
0.035188976159
0.0322768326135
0.0295197388216
0.0269219612223
0.0244849228394
0.0222101641852
0.0200942423873
0.0181379857439
0.016330741597
0.0146784618598
0.0131552507921
0.0117884054893
0.0105110194415
0.00941849136521
0.00832440396598
0.00752913448636
0.00649363776126
0.00612351686144
0.00484544957794
0.0053308268194
10.0000000118
10.0000002371
10.0000004584
10.000000745
10.0000011036
10.0000014826
10.0000017763
10.000001934
10.0000018999
10.0000017237
10.0000013896
10.0000009854
10.0000004918
10.0000000076
9.99999947787
9.99999899449
9.99999847272
9.99999799185
9.99999746086
9.99999694563
9.99999636933
9.99999579893
9.99999515428
9.9999945624
9.99999383307
9.99999331734
9.9999924355
9.99999217624
9.99999089996
9.99999128141
9.99998893558
9.99999090212
9.99998586985
9.99999176013
9.99998074318
9.99999583182
9.99997278874
10.0000044079
9.99995203238
9.99998015061
9.99980144438
9.99960122714
9.99877713557
9.99723588369
9.99367831896
9.9869837121
9.9744880842
9.95307334883
9.91814320686
9.86461190901
9.78645045146
9.67901831967
9.5368562292
9.35953113273
9.14424840662
8.89655725007
8.6164629557
8.31345843998
7.98825647611
7.65083856381
7.29986375769
6.94405700816
6.57069396468
6.17579384765
5.76596746744
5.33769205404
4.90305624264
4.45789283035
4.00256346988
3.54823002375
3.10592035093
2.68664426585
2.29932247949
1.94966176952
1.64029538844
1.37130055649
1.14081472076
0.945692372955
0.782102966434
0.646004350427
0.533460206642
0.440835615948
0.364887253588
0.302799077605
0.252163121517
0.210953059213
0.177469262444
0.150302787353
0.128279792173
0.110435437263
0.0959676309775
0.0842224780256
0.0746583557985
0.066836652209
0.0603993708142
0.0550542376883
0.0505726437713
0.046760154241
0.0434753495267
0.0405777810118
0.0378623230855
0.0352961043241
0.0328558685077
0.0305261239564
0.0282973953003
0.0261646973624
0.024126148277
0.0221819288914
0.0203332461181
0.0185818690814
0.0169292108225
0.0153766641648
0.0139241805637
0.0125722050186
0.0113181049451
0.0101622651415
0.00909773388115
0.00812819463975
0.00723744521573
0.00644196018302
0.00570131681599
0.0050715290496
0.00444370524893
0.00398966653744
0.00340384706237
0.00319164066881
0.00248403364667
0.00273826377481
10.0000000092
10.0000002597
10.0000005081
10.0000008008
10.0000011338
10.0000014646
10.0000017122
10.0000018247
10.0000017625
10.0000015444
10.000001175
10.0000007193
10.0000001835
9.99999964236
9.99999906733
9.9999985322
9.99999796445
9.99999744155
9.99999686049
9.99999630575
9.99999567034
9.99999504374
9.99999433182
9.9999936358
9.99999284534
9.99999212817
9.99999123559
9.99999058701
9.99998947041
9.99998908561
9.99998735216
9.99998780125
9.99998434012
9.99998739459
9.99997940436
9.99999026355
9.99997096537
9.9999994965
9.99994564009
9.99997909012
9.99977142838
9.99958450261
9.99863666046
9.99704643118
9.99310863219
9.98605885948
9.97270296726
9.95030903931
9.91419886072
9.85952109344
9.78148318117
9.67565479225
9.53908243574
9.37225003387
9.17470215559
8.95387275275
8.70884884898
8.44985147035
8.17309516752
7.88818956074
7.58621900743
7.28034971805
6.95083187402
6.58995900148
6.20602568987
5.78946331611
5.35506573605
4.89037683233
4.40022332314
3.89734914172
3.39546772478
2.91179445344
2.46159311942
2.05528864341
1.69848699071
1.39248649065
1.13510214664
0.921825669906
0.747016587529
0.60483268582
0.489794936658
0.397055347557
0.322469172733
0.262573278673
0.214514109182
0.175968192733
0.145053819175
0.120257470908
0.100360864296
0.0843875820342
0.0715513886178
0.0612217312179
0.0528904685035
0.0461494312398
0.0406707666467
0.0361914419513
0.0324999989934
0.0294322603299
0.0268454352539
0.0246544395411
0.0227281873105
0.0209649904832
0.0193365456053
0.0178214447349
0.0164039217001
0.0150727174816
0.0138200104152
0.0126405712353
0.0115309095172
0.0104888154924
0.00951260185295
0.00860119309859
0.00775308460525
0.00696747267624
0.00624193022432
0.00557609659253
0.00496533483415
0.00441144820887
0.00390463515374
0.00345408958651
0.00303645404032
0.00268299648172
0.00233265138107
0.00207998857477
0.00175749308371
0.00163890816919
0.00125657366476
0.00138764875126
10.0000000085
10.0000002722
10.0000005394
10.0000008277
10.0000011435
10.0000014225
10.0000016268
10.0000016747
10.0000015789
10.0000012918
10.0000008969
10.0000003614
9.99999980093
9.99999916984
9.99999856946
9.99999794246
9.9999973473
9.99999673685
9.99999612016
9.99999548
9.99999479198
9.99999406973
9.999993283
9.99999245761
9.99999157736
9.99999065729
9.99998969784
9.99998869548
9.99998765328
9.99998657683
9.99998538845
9.99998431521
9.99998266853
9.99998218479
9.99997902934
9.99998209811
9.99997332325
9.99998736461
9.99995002427
9.99996344232
9.99976215348
9.99955778308
9.99854277833
9.99694369709
9.99274773015
9.98571738592
9.97195022664
9.94990681997
9.91423055906
9.86169724715
9.7883693431
9.69067241849
9.56950638726
9.42541665165
9.26279747503
9.08687826889
8.89354690457
8.69050596839
8.46606348791
8.22487205529
7.96278186938
7.68894152409
7.39010310502
7.06186022831
6.71281031415
6.32869419846
5.92195031217
5.46963376817
4.9738557236
4.44283232854
3.88707019583
3.33051915224
2.79798711555
2.30861744016
1.87556900119
1.5054367639
1.19833693451
0.949337724791
0.750640955568
0.593604148187
0.470087419244
0.373096115011
0.296925140438
0.237049337712
0.189922531547
0.152778586348
0.123459520188
0.100281854547
0.081929604189
0.0673738406396
0.0558078642306
0.0465987028421
0.0392482668144
0.0333640532573
0.0286361668873
0.0248198707616
0.0217215142128
0.0191878282692
0.0171003708668
0.0153560130868
0.013902947672
0.0126212454829
0.0114758337331
0.0104432594129
0.00950512308021
0.00864720645836
0.0078586442741
0.00713124609936
0.00645881810943
0.00583674432041
0.00526139253576
0.00473005469348
0.00424021833948
0.00379014890417
0.00337745236669
0.00300114979604
0.00265799627377
0.00234851114782
0.00206682892708
0.00181767549277
0.00158796569931
0.00139440557057
0.00120383129656
0.00106664058586
0.000893518284281
0.000828985899353
0.000627036061385
0.000693771734183
10.0000000036