/*--------------------------------*- C++ -*----------------------------------*\
  =========                 |
  \\      /  F ield         | OpenFOAM: The Open Source CFD Toolbox
   \\    /   O peration     | Website:  https://openfoam.org
    \\  /    A nd           | Version:  7
     \\/     M anipulation  |
\*---------------------------------------------------------------------------*/
FoamFile
{
    version     2.0;
    format      ascii;
    class       volScalarField;
    location    "60";
    object      p;
}
// * * * * * * * * * * * * * * * * * * * * * * * * * * * * * * * * * * * * * //

dimensions      [0 2 -2 0 0 0 0];

internalField   nonuniform List<scalar> 
8192
(
0.000738607671554
0.000567086781589
0.000481544641171
0.000437532653791
0.000412618775409
0.0003974907633
0.00038772395842
0.00038107036419
0.000376321666235
0.000372793604964
0.000370079249464
0.000367925439618
0.000366168176384
0.000364697379881
0.000363436860174
0.000362332476653
0.000361344873409
0.000360444865563
0.000359610414361
0.000358824584798
0.000358074128371
0.000357348473597
0.000356638988198
0.00035593842519
0.000355240494797
0.000354539522022
0.000353830163587
0.000353107164489
0.000352365138108
0.000351598358661
0.000350800557322
0.000349964715018
0.000349082846611
0.000348145772597
0.000347142876388
0.000346061847348
0.000344888412841
0.000343606066248
0.000342195803049
0.000340635882975
0.000338901643565
0.000336965397837
0.000334796456052
0.000332361316137
0.000329624067814
0.000326547048104
0.000323091768846
0.000319220107628
0.000314895713449
0.00031008553166
0.000304761310431
0.000298900930154
0.000292489419573
0.000285519601992
0.000277992438042
0.000269917240553
0.00026131195197
0.000252203568057
0.000242628648835
0.000232633800258
0.000222276003748
0.000211622549107
0.000200750151876
0.000189742987473
0.000178689891841
0.00016768127697
0.000156806048227
0.000146148523147
0.000135785606619
0.000125784769584
0.000116203101822
0.000107087182981
9.84733712095e-05
9.03883047005e-05
8.28495163484e-05
7.58660157487e-05
6.94387136191e-05
6.35607152003e-05
5.82176522383e-05
5.33882446449e-05
4.9045192539e-05
4.5156378183e-05
4.16862680567e-05
3.85973705726e-05
3.58516136545e-05
3.34115411639e-05
3.12412693187e-05
2.93071843024e-05
2.75783924821e-05
2.60269550463e-05
2.46279482176e-05
2.33593927904e-05
2.22020929326e-05
2.11394187674e-05
2.01570594624e-05
1.92427673507e-05
1.83861067437e-05
1.75782169575e-05
1.68115943749e-05
1.60798965014e-05
1.53777680638e-05
1.47006889536e-05
1.4044841981e-05
1.34069991111e-05
1.27844235251e-05
1.21747860558e-05
1.15760933877e-05
1.09866268694e-05
1.04048896316e-05
9.8295613026e-06
9.25945841266e-06
8.69350030543e-06
8.13067917008e-06
7.57003475041e-06
7.01063325861e-06
6.45155247565e-06
5.89187469521e-06
5.3306930451e-06
4.76713876247e-06
4.20044539329e-06
3.63007630852e-06
3.0559669289e-06
2.47897730051e-06
1.90174856354e-06
1.3303710437e-06
7.77807253473e-07
2.72262605939e-07
-4.51807185352e-08
0.000589664801688
0.000526180301143
0.000476554760694
0.000443986811584
0.000422154832717
0.00040706010127
0.000396319010507
0.000388464017441
0.000382568625989
0.000378034066107
0.000374464386
0.000371591775777
0.000369231096757
0.0003672516787
0.000365559487243
0.000364085621639
0.000362778744161
0.00036159999586
0.000360519513669
0.000359513997656
0.000358564979007
0.000357657563194
0.000356779500089
0.000355920481701
0.000355071599991
0.000354224916323
0.000353373111352
0.000352509191377
0.000351626231578
0.000350717143307
0.000349774455383
0.000348790101626
0.000347755208976
0.000346659882292
0.000345492983914
0.000344241908258
0.0003428923544
0.000341428102922
0.000339830807434
0.000338079816027
0.000336152043535
0.000334021921187
0.000331661455553
0.000329040431928
0.000326126797136
0.000322887250612
0.000319288058871
0.000315296085408
0.000310879996546
0.000306011566714
0.000300666972058
0.00029482794205
0.000288482652378
0.000281626303436
0.00027426143126
0.000266398096195
0.000258054113413
0.000249255391531
0.000240036309845
0.000230440029524
0.000220518676494
0.000210333237157
0.000199952784215
0.000189452742441
0.00017891243462
0.000168412463619
0.000158032161609
0.000147846985028
0.000137926046517
0.000128330342805
0.000119111941574
0.000110313839506
0.000101970116706
9.41062666936e-05
8.67396646086e-05
7.98800426271e-05
7.35298443752e-05
6.7684476908e-05
6.23326098199e-05
5.74566820529e-05
5.30336921585e-05
4.90362454348e-05
4.5433762043e-05
4.21937267106e-05
3.92828704842e-05
3.66682037074e-05
3.4317852866e-05
3.2201685461e-05
3.02917308957e-05
2.85624216342e-05
2.69906866293e-05
2.55559314771e-05
2.42399372463e-05
2.30267059886e-05
2.19022751383e-05
2.08545182073e-05
1.98729438937e-05
1.8948502312e-05
1.80734033401e-05
1.72409503345e-05
1.64453901309e-05
1.5681779751e-05
1.4945868783e-05
1.42339966754e-05
1.35430031949e-05
1.28701509908e-05
1.22130584217e-05
1.15696417125e-05
1.09380647838e-05
1.03166961378e-05
9.70407147582e-06
9.09886188111e-06
8.49984673811e-06
7.90589191134e-06
7.31593323017e-06
6.72896709044e-06
6.14405006214e-06
5.56031214986e-06
4.97698993271e-06
4.39349110609e-06
3.80950760421e-06
3.22520666449e-06
2.64154650471e-06
2.06079648828e-06
1.48739708579e-06
9.29438433609e-07
4.00652292128e-07
1.11902803409e-08
0.000506641560102
0.000484015295367
0.000458087235291
0.000436925796469
0.000420883572051
0.000408645780572
0.000399189578213
0.000391785430175
0.000385910355873
0.000381184781786
0.000377330393357
0.000374141325404
0.000371464007949
0.000369182879136
0.00036721018285
0.000365478643604
0.000363936177591
0.000362542048471
0.000361264051212
0.000360076430319
0.000358958325229
0.000357892596182
0.000356864926207
0.00035586312453
0.000354876577424
0.000353895805012
0.000352912098564
0.000351917216211
0.000350903118165
0.000349861730104
0.000348784725146
0.00034766331706
0.000346488059341
0.000345248646408
0.000343933715069
0.000342530646218
0.000341025369143
0.000339402173472
0.000337643537307
0.000335729983992
0.000333639984717
0.000331349928926
0.000328834189253
0.000326065310876
0.000323014355866
0.000319651428844
0.000315946399708
0.000311869820188
0.000307394003814
0.000302494204932
0.000297149797484
0.000291345328902
0.000285071327063
0.000278324789981
0.000271109395109
0.000263435585703
0.000255320727362
0.00024678940642
0.000237873758135
0.000228613698993
0.000219057092357
0.000209259792087
0.000199285082867
0.000189202041886
0.000179083138626
0.000169001876121
0.000159030666729
0.000149238506695
0.000139688572311
0.000130436553888
0.000121530080517
0.000113008742955
0.00010490422686
9.72405562707e-05
9.00345168565e-05
8.32961005621e-05
7.70287895931e-05
7.12297021111e-05
6.58897839802e-05
6.09942247492e-05
5.65231652261e-05
5.2452653868e-05
4.8755747948e-05
4.54036435262e-05
4.23667351136e-05
3.9615536085e-05
3.71214219676e-05
3.48571864413e-05
3.27974196554e-05
3.0918731613e-05
2.91998488175e-05
2.76216138851e-05
2.6166914967e-05
2.48205684905e-05
2.35691735289e-05
2.24009524219e-05
2.13055876465e-05
2.02740625169e-05
1.92985099433e-05
1.83720724357e-05
1.74887742434e-05
1.66434064954e-05
1.583142457e-05
1.50488575395e-05
1.42922282349e-05
1.35584834781e-05
1.28449328583e-05
1.21491956574e-05
1.1469154392e-05
1.08029148104e-05
1.01487710411e-05
9.50517608634e-06
8.8707167231e-06
8.24409352869e-06
7.62410570171e-06
7.00964226661e-06
6.39968044969e-06
5.79329441886e-06
5.18967735817e-06
4.58818320936e-06
3.98839549872e-06
3.39023614395e-06
2.794131551e-06
2.20126377216e-06
1.61394286901e-06
1.03606671971e-06
4.72859314293e-07
2.73327057366e-08
0.000461987567947
0.00045365899789
0.000439536046645
0.000425815049574
0.000414454518971
0.000405240458308
0.000397718295971
0.000391518801867
0.000386363364719
0.000382039238392
0.00037838063258
0.000375256515481
0.000372562480082
0.000370214929849
0.000368146687396
0.000366303574176
0.000364641710273
0.000363125372758
0.000361725294812
0.000360417313648
0.000359181293646
0.000358000265637
0.000356859735167
0.000355747122593
0.000354651304556
0.000353562231557
0.000352470607809
0.000351367617719
0.000350244684066
0.000349093250484
0.000347904580779
0.000346669569236
0.000345378557493
0.000344021154836
0.000342586060181
0.000341060885512
0.000339431982426
0.000337684275676
0.000335801110491
0.000333764123934
0.000331553154752
0.000329146210909
0.000326519518792
0.000323647682241
0.000320503981581
0.00031706084096
0.000313290484229
0.000309165783226
0.000304661276545
0.000299754301981
0.000294426145411
0.000288663072121
0.000282457094043
0.000275806371657
0.000268715278277
0.000261194329267
0.000253260253753
0.000244936311033
0.000236252646919
0.000227246483024
0.000217962318906
0.000208452288139
0.000198775946471
0.000188998577682
0.000179188512832
0.000169414861441
0.000159745815371
0.00015024644887
0.000140976040931
0.000131986357705
0.000123321458519
0.000115018048508
0.000107105624803
9.96066591075e-05
9.25370682691e-05
8.59067124041e-05
7.97196164723e-05
7.39739605849e-05
6.86621162535e-05
6.3770962064e-05
5.92825427584e-05
5.51749991259e-05
5.14236392323e-05
4.80020238143e-05
4.48829672685e-05
4.20393915464e-05
3.94450030924e-05
3.70747895733e-05
3.49053510373e-05
3.29150905849e-05
3.10842931177e-05
2.93951202856e-05
2.78315462297e-05
2.63792546462e-05
2.50255129486e-05
2.37590355518e-05
2.25698445862e-05
2.14491339599e-05
2.03891402817e-05
1.93830229664e-05
1.84247543979e-05
1.7509020631e-05
1.66311322351e-05
1.57869449565e-05
1.49727892932e-05
1.41854084066e-05
1.34219033448e-05
1.2679685024e-05
1.19564320118e-05
1.12500537114e-05
1.05586581594e-05
9.88052426254e-06
9.21407793146e-06
8.55787224817e-06
7.91057147759e-06
7.27093952028e-06
6.63783317948e-06
6.01020160516e-06
5.38709331859e-06
4.76767369054e-06
4.15125656222e-06
3.53735649851e-06
2.92577068667e-06
2.31670177753e-06
1.71091333609e-06
1.10976343908e-06
5.1425266119e-07
3.06164666008e-08
0.000434262130163
0.000432373052549
0.000424651577873
0.000415529653303
0.000407311116972
0.0004003323185
0.000394435654088
0.000389415502897
0.000385103431722
0.000381369786596
0.000378113374375
0.000375253026219
0.000372722171294
0.000370465437365
0.000368436401187
0.000366595969379
0.000364911121615
0.000363353884914
0.000361900474187
0.000360530563985
0.000359226669187
0.000357973617825
0.000356758101887
0.000355568294539
0.000354393519612
0.000353223963985
0.000352050428473
0.000350864108236
0.000349656392605
0.000348418681123
0.000347142210958
0.0003458178917
0.000344436144365
0.000342986742231
0.000341458652047
0.000339839875255
0.000338117290295
0.000336276498874
0.000334301681538
0.00033217547105
0.000329878856081
0.000327391132605
0.000324689925812
0.000321751310738
0.000318550063782
0.000315060077846
0.00031125496834
0.000307108882935
0.000302597502461
0.000297699182765
0.00029239613867
0.000286675517998
0.000280530178201
0.000273959010768
0.000266966819649
0.000259564029192
0.000251766656175
0.000243596721185
0.000235082714444
0.000226259702162
0.000217169518387
0.000207861634353
0.000198393550832
0.000188828864361
0.00017923384084
0.000169675135475
0.000160218764054
0.000150927954383
0.000141859719342
0.000133062896952
0.000124578626168
0.000116441238857
0.000108678337932
0.000101310860168
9.43536938329e-05
8.78163339726e-05
8.17030396329e-05
7.60126040259e-05
7.0738187827e-05
6.5867537244e-05
6.13836368901e-05
5.72656729234e-05
5.34901352451e-05
5.00319118737e-05
4.68652735567e-05
4.39646908651e-05
4.13054621836e-05
3.88641578385e-05
3.66189021685e-05
3.45495234278e-05
3.26376025758e-05
3.08664494597e-05
2.92210300435e-05
2.76878634059e-05
2.62549022837e-05
2.49114071563e-05
2.36478204991e-05
2.24556456816e-05
2.13273330183e-05
2.02561745066e-05
1.92362076893e-05
1.82621287938e-05
1.73292146719e-05
1.64332531427e-05
1.55704809322e-05
1.4737528669e-05
1.39313720791e-05
1.3149288877e-05
1.23888205659e-05
1.16477387592e-05
1.09240153574e-05
1.02157963398e-05
9.52137865383e-06
8.83919014025e-06
8.16777216734e-06
7.5057651625e-06
6.85189702567e-06
6.20497507329e-06
5.56388218116e-06
4.92757885979e-06
4.29511357969e-06
3.66564525101e-06
3.03848136555e-06
2.41312809657e-06
1.78930706841e-06
1.16673105955e-06
5.43996533342e-07
3.17369246367e-08
0.000415816327375
0.000416811504422
0.000412857871874
0.000406797415431
0.000400764073676
0.00039538048446
0.000390697581185
0.00038662072367
0.000383043524748
0.000379877676471
0.000377053955343
0.000374517652254
0.000372224362021
0.000370137074837
0.000368224318705
0.000366458970855
0.000364817457465
0.000363279171598
0.000361826015569
0.000360442018808
0.000359113006447
0.000357826305909
0.000356570484486
0.000355335115416
0.000354110561994
0.000352887781791
0.000351658150268
0.000350413298532
0.000349144959357
0.000347844821038
0.0003465043863
0.000345114833882
0.000343666880645
0.000342150642524
0.000340555493098
0.000338869919293
0.00033708137476
0.000335176132908
0.000333139143664
0.000330953900951
0.000328602331806
0.00032606472326
0.000323319709322
0.000320344347376
0.000317114319569
0.000313604298256
0.000309788512049
0.000305641536771
0.000301139310295
0.000296260329409
0.000290986928278
0.0002853064634
0.000279212159116
0.000272703371023
0.000265785220642
0.000258467975843
0.000250766885205
0.000242702808241
0.000234302928798
0.000225600651759
0.00021663558361
0.000207455230095
0.000198116535047
0.000188683431891
0.000179221854791
0.000169797394568
0.000160475580977
0.000151319784146
0.000142386189609
0.000133721306236
0.000125363729237
0.000117345903005
0.000109693858947
0.000102427000122
9.55590383825e-05
8.90989674304e-05
8.30511268302e-05
7.74146385935e-05
7.21829700604e-05
6.73440639714e-05
6.28810401794e-05
5.87732573046e-05
5.49975033348e-05
5.15291434933e-05
4.83431198981e-05
4.5414751551e-05
4.27203231874e-05
4.02374790214e-05
3.79454525604e-05
3.58251691509e-05
3.38592562408e-05
3.20319913184e-05
3.03292109273e-05
2.87381981658e-05
2.72475607403e-05
2.58471077534e-05
2.45277302694e-05
2.32812887488e-05
2.2100508845e-05
2.09788862659e-05
1.99106006372e-05
1.88904380981e-05
1.79137219884e-05
1.69762510493e-05
1.60742443524e-05
1.52042923528e-05
1.43633133117e-05
1.35485145622e-05
1.27573579528e-05
1.19875290483e-05
1.12369095256e-05
1.05035524486e-05
9.78565996456e-06
9.08156321927e-06
8.38970415565e-06
7.70861915837e-06
7.03692443141e-06
6.37330340958e-06
5.71649658533e-06
5.06529473222e-06
4.41853658906e-06
3.77511178105e-06
3.13396569367e-06
2.49408813424e-06
1.85441867607e-06
1.21347394531e-06
5.68299476505e-07
3.31659528039e-08
0.000402856841233
0.00040509909127
0.000403400675621
0.000399460427827
0.000395033319396
0.000390838723636
0.00038706753526
0.000383715189787
0.000380725073615
0.000378037309878
0.000375601275537
0.000373376433291
0.000371330292916
0.000369436248774
0.000367671937127
0.000366018115238
0.000364457920989
0.000362976378212
0.000361560051237
0.000360196787341
0.000358875510696
0.000357586047138
0.000356318968238
0.000355065452068
0.000353817145405
0.000352566035869
0.000351304333657
0.000350024356585
0.000348718416394
0.000347378706566
0.000345997190081
0.000344565485595
0.00034307475058
0.000341515560052
0.000339877779763
0.000338150433112
0.000336321561737
0.000334378080849
0.000332305632115
0.000330088439598
0.000327709178149
0.000325148869158
0.000322386825841
0.000319400678938
0.000316166522844
0.000312659229271
0.000308852976733
0.00030472203471
0.000300241816565
0.000295390171441
0.000290148816961
0.000284504713933
0.000278451060909
0.000271987527813
0.00026511956441
0.00025785727166
0.000250215008904
0.000242212458107
0.000233875873077
0.000225237512
0.000216334876186
0.000207213750164
0.000197932037739
0.000188556344637
0.000179153852291
0.000169789918285
0.000160531101599
0.000151443225742
0.00014258309163
0.00013399496642
0.000125714953966
0.000117774164425
0.000110197429104
0.000103002506739
9.62017017267e-05
8.98034234285e-05
8.38120682806e-05
7.82269242343e-05
7.30413680512e-05
6.82429325578e-05
6.38141349066e-05
5.97337141869e-05
5.59779693493e-05
5.25220004199e-05
4.93407476121e-05
4.640978644e-05
4.3705880713e-05
4.12073231976e-05
3.889410716e-05
3.67479740288e-05
3.47523772857e-05
3.28923945129e-05
3.11546110276e-05
2.95269912251e-05
2.7998748044e-05
2.65602168769e-05
2.52027374201e-05
2.39185451341e-05
2.27006728174e-05
2.15428621303e-05
2.04394844988e-05
1.9385470662e-05
1.83762480313e-05
1.74076850476e-05
1.64760417367e-05
1.55779257407e-05
1.47102531401e-05
1.38702134719e-05
1.30552383784e-05
1.22629734082e-05
1.14912525057e-05
1.07380748062e-05
1.00015833587e-05
9.28004547991e-06
8.57183445673e-06
7.87541241447e-06
7.18931421886e-06
6.512132419e-06
5.84250329738e-06
5.17909408042e-06
4.52059075859e-06
3.86568381086e-06
3.21304246337e-06
2.56125012623e-06
1.9086303447e-06
1.2528111818e-06
5.89815524083e-07
3.61375292604e-08
0.000393346318334
0.000396068408514
0.000395728154048
0.000393274609058
0.000390063939541
0.000386794923839
0.000383735385518
0.000380949221807
0.000378423207067
0.000376122544647
0.000374011388246
0.000372058810148
0.000370239469718
0.000368532708281
0.00036692141975
0.000365391104216
0.000363929169997
0.000362524444489
0.000361166835359
0.000359847091913
0.000358556630206
0.000357287397512
0.000356031760339
0.000354782410719
0.000353532271456
0.000352274407114
0.000351001944696
0.000349707990832
0.00034838554758
0.000347027426144
0.000345626157306
0.000344173897332
0.000342662328022
0.000341082549587
0.000339424965002
0.000337679154709
0.000335833740871
0.000333876241217
0.00033179291389
0.000329568597133
0.000327186551484
0.000324628317974
0.000321873614126
0.00031890030038
0.000315684462056
0.000312200663645
0.000308422438263
0.000304323069506
0.000299876699503
0.000295059751301
0.000289852577564
0.000284241120244
0.000278218169459
0.000271783632985
0.000264943411998
0.00025770745684
0.000250088944096
0.000242106145421
0.00023378484584
0.000225156871823
0.000216257321637
0.000207129766655
0.000197834837745
0.000188445054038
0.000179030396401
0.000169655976036
0.000160390835173
0.000151306515325
0.000142462110381
0.000133898881884
0.000125650074345
0.000117746321201
0.000110211742891
0.000103062086904
9.63078192488e-05
8.9956713226e-05
8.40133251057e-05
7.84770283555e-05
7.33407242186e-05
6.85909084287e-05
6.42087411809e-05
6.01715558088e-05
5.64544056449e-05
5.30314345487e-05
4.98769734541e-05
4.69663358189e-05
4.42763312566e-05
4.17855448923e-05
3.94744406433e-05
3.73253442976e-05
3.53223523896e-05
3.34512010911e-05
3.1699118324e-05
3.00546737893e-05
2.85076353319e-05
2.7048836043e-05
2.56700538295e-05
2.43639037454e-05
2.31237424651e-05
2.19435839501e-05
2.08180251261e-05
1.9742180454e-05
1.87116242575e-05
1.7722339844e-05
1.67706744803e-05
1.58532994678e-05
1.49671745753e-05
1.4109516254e-05
1.32777690484e-05
1.24695797624e-05
1.16827739065e-05
1.09153340822e-05
1.01653799092e-05
9.4311492224e-06
8.71098021269e-06
8.00329429641e-06
7.30657943313e-06
6.6193736685e-06
5.9402484398e-06
5.26779077529e-06
4.60058209819e-06
3.93716809425e-06
3.27600617422e-06
2.61535998643e-06
1.95307775399e-06
1.28614781901e-06
6.09932152849e-07
4.13640001251e-08
0.000386123687035
0.000388966934427
0.000389443100121
0.000388035458857
0.000385756395411
0.000383226757805
0.000380742649255
0.000378413601147
0.000376261843836
0.000374275358323
0.000372432050788
0.000370709386199
0.000369087521203
0.000367549816292
0.000366082442383
0.000364673780814
0.000363313868754
0.000361993957564
0.000360706182683
0.000359443322825
0.00035819862417
0.000356965669291
0.000355738276126
0.000354510417393
0.000353276145465
0.00035202952024
0.000350764550848
0.000349475131568
0.000348154976074
0.000346797548303
0.000345395988535
0.000343943033281
0.000342430927482
0.000340851327397
0.000339195192476
0.000337452664431
0.000335612931841
0.000333664079081
0.000331592919357
0.000329384813721
0.000327023481556
0.000324490814103
0.000321766711928
0.00031882898038
0.00031565333364
0.000312213575324
0.000308482036232
0.000304430349528
0.000300030622552
0.00029525701857
0.000290087683442
0.000284506804781
0.0002785063039
0.000272086277071
0.000265253323589
0.000258017278541
0.000250389505823
0.000242386174777
0.000234033239915
0.000225363412547
0.000216408479855
0.000207207884348
0.000197827334746
0.000188350492967
0.000178851755595
0.000169394370306
0.000160051310334
0.000150905225756
0.000142019747293
0.000133430701263
0.00012516752287
0.000117262049116
0.000109738394185
0.000102609379901
9.5882830328e-05
8.95658710534e-05
8.36634709985e-05
7.81750488307e-05
7.30925704388e-05
6.84007533774e-05
6.40785503471e-05
6.01010441086e-05
5.64412653455e-05
5.30717224844e-05
4.99655661172e-05
4.70973816762e-05
4.44436522715e-05
4.19829616739e-05
3.96960144227e-05
3.75655414027e-05
3.55761435189e-05
3.37141096392e-05
3.19672313848e-05
3.0324627366e-05
2.8776582956e-05
2.73144076516e-05
2.59303098948e-05
2.46172880474e-05
2.33690358167e-05
2.21798602656e-05
2.10446106994e-05
1.99586168219e-05
1.89176348191e-05
1.7917800146e-05
1.69555860408e-05
1.60277668615e-05
1.51313855467e-05
1.42637245282e-05
1.34222795882e-05
1.26047361452e-05
1.18089475872e-05
1.10329152338e-05
1.02747696261e-05
9.53275277563e-06
8.80520110558e-06
8.09052870677e-06
7.38721056338e-06
6.69376514584e-06
6.00873547914e-06
5.33066684447e-06
4.6580775199e-06
3.98941498877e-06
3.32298236027e-06
2.65680528439e-06
1.98838785503e-06
1.31428718626e-06
6.29467210201e-07
4.93099495149e-08
0.000380494740889
0.000383294111572
0.000384255687225
0.000383583428483
0.000382019324671
0.000380087074322
0.000378078967886
0.000376129934886
0.000374288481281
0.000372562085239
0.000370941466052
0.000369412144893
0.000367959376211
0.000366569916716
0.000365232405338
0.000363937200907
0.000362676057189
0.000361441791389
0.00036022800029
0.00035902883453
0.000357838824864
0.000356652749393
0.000355465533632
0.000354272168757
0.000353067642107
0.000351846872156
0.00035060465748
0.000349335622227
0.000348034160249
0.000346694375902
0.000345310019698
0.00034387441705
0.00034238038824
0.00034082015759
0.000339185249529
0.00033746636902
0.00033565326362
0.000333734564483
0.00033169760418
0.00032952821078
0.00032721048088
0.000324726540419
0.00032205631229
0.000319177325423
0.0003160646212
0.000312690837725
0.000309026573747
0.000305041141256
0.000300703797945
0.000295985505908
0.000290861191234
0.000285312332964
0.000279329330033
0.000272912380497
0.000266069189687
0.000258809565406
0.000251141830406
0.000243078382517
0.000234646254728
0.000225881843492
0.000216811809248
0.000207466563268
0.000197920369581
0.00018827739206
0.000178618170014
0.000168999183747
0.000159498729662
0.000150220445391
0.000141235844428
0.000132569371232
0.000124244909369
0.000116299127802
0.000108757119702
0.0001016266986
9.49116080415e-05
8.86184229494e-05
8.27529802108e-05
7.73146788836e-05
7.22938958427e-05
6.76726066594e-05
6.34265308752e-05
5.95275439573e-05
5.59458207622e-05
5.26515441024e-05
4.96161368653e-05
4.68130381056e-05
4.42180933073e-05
4.18096574693e-05
3.95685108957e-05
3.74776705567e-05
3.55221562538e-05
3.36887490894e-05
3.19657630742e-05
3.03428396119e-05
2.88107678387e-05
2.73613301785e-05
2.59871707282e-05
2.46816835127e-05
2.34389176175e-05
2.22534964822e-05
2.11205489869e-05
2.00356503393e-05
1.89947710993e-05
1.79942329708e-05
1.70306702294e-05
1.61009958497e-05
1.52023715562e-05
1.43321811447e-05
1.34880065255e-05
1.26676060103e-05
1.18688944334e-05
1.10899247304e-05
1.03288706343e-05
9.58401014646e-06
8.85370943424e-06
8.136406732e-06
7.43059570185e-06
6.73480740945e-06
6.04758952815e-06
5.36748026688e-06
4.69297243263e-06
4.02245908224e-06
3.35414527843e-06
2.6858994067e-06
2.01500416521e-06
1.33776227804e-06
6.48944739106e-07
6.02761918044e-08
0.000376025454016
0.000378708038399
0.000379950337258
0.000379793603852
0.000378777131565
0.000377328906866
0.000375719121161
0.000374092435743
0.000372514703125
0.000371008842681
0.00036957689296
0.000368212008503
0.000366904428422
0.000365644180085
0.000364422133998
0.000363230279931
0.000362061667597
0.000360910226749
0.000359770564448
0.000358637779302
0.000357507305119
0.000356374783998
0.000355235969089
0.000354086641817
0.000352922540535
0.000351739300153
0.000350532401863
0.000349297122567
0.000348028483682
0.000346721197096
0.000345369606147
0.000343967619518
0.000342508635771
0.000340985456003
0.000339390181676
0.000337714094217
0.000335947512423
0.000334079623306
0.000332098281976
0.000329989777017
0.00032773856045
0.000325326947154
0.000322734799419
0.000319939230299
0.000316914385946
0.00031363140065
0.000310058651394
0.000306162456424
0.000301908348609
0.000297263009382
0.000292196894547
0.000286687481769
0.000280722640475
0.000274302438075
0.000267436325263
0.000260134353362
0.000252399578034
0.000244236875221
0.000235675491458
0.000226761725197
0.000217514019234
0.000207942360194
0.000198135118392
0.000188234849301
0.00017833001078
0.000168458600582
0.000158705245269
0.000149213884738
0.000140069290486
0.000131270895195
0.000122834381585
0.000114809261788
0.000107222683337
0.00010007288897
9.33571061181e-05
8.70817619787e-05
8.12543011204e-05
7.58738955566e-05
7.09283158109e-05
6.63954833085e-05
6.22466140221e-05
5.84492743698e-05
5.49698819607e-05
5.17755941182e-05
4.88355926652e-05
4.61218149269e-05
4.36092362503e-05
4.12758389407e-05
3.91023954444e-05
3.70721645203e-05
3.5170565654e-05
3.33848688813e-05
3.17039176202e-05
3.01178900295e-05
2.86180979428e-05
2.71968193855e-05
2.58471597562e-05
2.45629367773e-05
2.33385848975e-05
2.21690754549e-05
2.10498496143e-05
1.99767616301e-05
1.89460305135e-05
1.79541985287e-05
1.69980952967e-05
1.60748064827e-05
1.51816462761e-05
1.4316132972e-05
1.34759671227e-05
1.26590117642e-05
1.18632743319e-05
1.10868898742e-05
1.0328105239e-05
9.5852638546e-06
8.85679073135e-06
8.14117716193e-06
7.4369644482e-06
6.74272556121e-06
6.05704301197e-06
5.37847993932e-06
4.70553931816e-06
4.0366024766e-06
3.36983235045e-06
2.70301888903e-06
2.0333366215e-06
1.35698563364e-06
6.68713959208e-07
7.4433511941e-08
0.000372432615621
0.000374969107916
0.000376363862264
0.000376566335131
0.000375967727664
0.000374911060955
0.000373635924751
0.000372285809694
0.00037093625454
0.000369621408252
0.000368352688544
0.000367130148179
0.000365948805773
0.000364801924424
0.000363682576376
0.000362584297954
0.000361501287648
0.000360428391159
0.000359360999396
0.00035829492142
0.000357226260575
0.000356151304513
0.000355066436314
0.000353968056332
0.000352852508426
0.00035171602447
0.000350554673592
0.000349364313396
0.000348140541087
0.000346878642238
0.000345573534879
0.000344219706534
0.000342811141599
0.000341341236047
0.000339802695873
0.00033818741493
0.000336486326861
0.00033468922488
0.000332784542336
0.000330759086929
0.000328597723027
0.000326283001479
0.000323794747061
0.000321109633645
0.00031820080922
0.000315037677321
0.000311585990069
0.000307808441115
0.000303665937506
0.000299119677796
0.000294134131288
0.000288681029076
0.000282744136931
0.000276322826165
0.000269429273738
0.000262074582431
0.000254252798526
0.000245953129383
0.000237207738731
0.000228086658713
0.000218595588191
0.000208698310167
0.000198506659434
0.000188237237761
0.00017798784712
0.000167752341623
0.000157621138356
0.000147817826644
0.000138449510917
0.000129459870536
0.000120853384093
0.000112710031552
0.000105059030088
9.78793022386e-05
9.11577601488e-05
8.49018599257e-05
7.91217770176e-05
7.38158902422e-05
6.89677513467e-05
6.45494438291e-05
6.05261318248e-05
5.68598371642e-05
5.35122804046e-05
5.04469231218e-05
4.7630270168e-05
4.50325078653e-05
4.26276265144e-05
4.03932085656e-05
3.83100433474e-05
3.63616835492e-05
3.45340125456e-05
3.28148568277e-05
3.11936554775e-05
2.96611863723e-05
2.82093430306e-05
2.68309541496e-05
2.55196379112e-05
2.426968409e-05
2.30759581441e-05
2.19338226428e-05
2.08390723539e-05
1.97878801416e-05
1.87767514532e-05
1.78024856756e-05
1.68621430142e-05
1.59530158393e-05
1.50726036568e-05
1.42185910293e-05
1.3388827891e-05
1.2581311796e-05
1.17941716968e-05
1.10256528924e-05
1.02741027968e-05
9.53795715687e-06
8.81572629059e-06
8.10598077645e-06
7.40733579064e-06
6.71843285183e-06
6.03791700319e-06
5.36440620756e-06
4.69644768924e-06
4.03245273197e-06
3.37059684242e-06
2.70866670705e-06
2.04383164497e-06
1.37232068877e-06
6.89005642314e-07
9.18383856603e-08
0.000369523606857
0.000371904990447
0.000373370641917
0.000373820600443
0.000373539190151
0.000372798107319
0.00037180401568
0.000370692384527
0.000369542445463
0.000368395696984
0.00036727082294
0.000366173783515
0.000365103992486
0.000364057844201
0.000363030606854
0.000362017367211
0.000361013449726
0.000360014557747
0.000359016776495
0.000358016513911
0.000357010419188
0.000355995299417
0.00035496804522
0.000353925561324
0.000352864696867
0.000351782194301
0.000350674640154
0.000349538418219
0.000348369662851
0.000347164210147
0.000345917544715
0.000344624739501
0.000343280385845
0.000341878510331
0.000340412474245
0.000338874850367
0.000337257270428
0.000335550234938
0.00033374287535
0.000331822657199
0.000329775012903
0.000327582896239
0.000325226260245
0.000322681481151
0.000319920788272
0.000316911816545
0.000313617467894
0.000309996323175
0.000306003843366
0.000301594523024
0.000296725132656
0.000291359414293
0.000285474650719
0.000279068324558
0.000272156825748
0.000264754518088
0.000256840777405
0.00024837189473
0.000239380473296
0.00022999079001
0.000220190892377
0.000209840234723
0.000199090607878
0.000188305722296
0.00017759238287
0.000166846655052
0.000156159089485
0.00014591538065
0.000136260910527
0.000127014165991
0.000118168078426
0.000109871493118
0.00010215045682
9.49442609643e-05
8.82244000116e-05
8.20023293579e-05
7.62925463293e-05
7.1091359275e-05
6.63756289031e-05
6.21092882116e-05
5.82496882988e-05
5.47520370193e-05
5.15724815308e-05
4.86702439303e-05
4.60088825987e-05
4.35567666252e-05
4.12869667834e-05
3.91768038955e-05
3.72072535861e-05
3.53623373398e-05
3.36285687802e-05
3.19944823131e-05
3.04502473564e-05
2.89873598172e-05
2.75983984047e-05
2.62768330765e-05
2.50168743997e-05
2.38133545453e-05
2.26616326039e-05
2.1557518549e-05
2.04972115556e-05
1.94772494009e-05
1.84944665003e-05