/*--------------------------------*- C++ -*----------------------------------*\
  =========                 |
  \\      /  F ield         | OpenFOAM: The Open Source CFD Toolbox
   \\    /   O peration     | Website:  https://openfoam.org
    \\  /    A nd           | Version:  7
     \\/     M anipulation  |
\*---------------------------------------------------------------------------*/
FoamFile
{
    version     2.0;
    format      ascii;
    class       volScalarField;
    location    "480";
    object      Ci;
}
// * * * * * * * * * * * * * * * * * * * * * * * * * * * * * * * * * * * * * //

dimensions      [0 -3 0 0 1 0 0];

internalField   nonuniform List<scalar> 
8192
(
9.99999999099
10.0000000317
10.0000000945
10.0000001828
10.0000003045
10.0000004542
10.0000006243
10.0000008078
10.0000009999
10.0000011963
10.0000013944
10.0000015913
10.0000017853
10.0000019737
10.0000021549
10.0000023265
10.0000024868
10.0000026333
10.0000027645
10.0000028778
10.0000029722
10.0000030452
10.0000030959
10.0000031219
10.0000031229
10.0000030966
10.0000030431
10.0000029604
10.0000028488
10.0000027067
10.0000025351
10.0000023324
10.0000021003
10.0000018375
10.0000015463
10.0000012258
10.000000879
10.0000005054
10.0000001087
9.99999968874
9.99999925006
9.99999879262
9.9999983216
9.99999783694
9.99999734426
9.99999684324
9.9999963399
9.99999583372
9.99999533139
9.99999483264
9.99999434546
9.99999387045
9.99999341746
9.99999298821
9.99999259446
9.99999223888
9.99999193502
9.99999168607
9.99999150742
9.9999914042
9.99999139336
9.99999147909
9.9999916758
9.99999198229
9.99999240578
9.99999293619
9.99999357184
9.99999429549
9.99999510128
9.99999597108
9.9999968991
9.99999786738
9.99999887111
9.99999989419
10.0000009319
10.0000019691
10.0000030022
10.0000040187
10.0000050169
10.0000059869
10.0000069287
10.0000078336
10.0000087023
10.0000095276
10.000010311
10.0000110469
10.0000117383
10.0000123814
10.0000129807
10.0000135338
10.0000140462
10.0000145164
10.0000149501
10.0000153464
10.0000157108
10.0000160425
10.000016347
10.0000166242
10.0000168805
10.0000171152
10.000017333
10.0000175326
10.0000177184
10.000017889
10.0000180487
10.0000181957
10.0000183343
10.0000184626
10.0000185844
10.0000186977
10.0000188061
10.0000189072
10.0000190043
10.0000190946
10.000019181
10.0000192603
10.0000193349
10.0000194007
10.0000194594
10.0000195059
10.000019541
10.0000195586
10.000019559
10.0000195368
10.0000194946
10.0000194338
10.0000193657
10.0000193132
10.0000000009
10.0000000535
10.0000001154
10.0000001958
10.0000003006
10.0000004287
10.0000005772
10.0000007418
10.0000009184
10.0000011031
10.0000012926
10.0000014837
10.0000016741
10.000001861
10.0000020425
10.0000022161
10.00000238
10.0000025317
10.0000026698
10.0000027917
10.0000028963
10.0000029812
10.0000030456
10.0000030872
10.0000031057
10.0000030989
10.0000030668
10.0000030076
10.0000029218
10.0000028076
10.0000026662
10.000002496
10.0000022987
10.0000020731
10.0000018214
10.0000015428
10.0000012401
10.0000009128
10.0000005644
10.0000001947
9.99999980758
9.99999940318
9.99999898581
9.99999855548
9.99999811678
9.99999766947
9.99999721838
9.99999676307
9.99999630891
9.99999585567
9.99999540978
9.9999949718
9.99999454971
9.99999414511
9.99999376759
9.99999341979
9.99999311287
9.99999285063
9.99999264582
9.99999250342
9.99999243705
9.99999245121
9.99999255752
9.99999275663
9.9999930547
9.99999344603
9.99999393033
9.99999449667
9.99999514136
9.99999585223
9.99999662522
9.999997448
9.9999983159
9.99999921645
10.0000001446
10.0000010883
10.0000020428
10.0000029971
10.0000039479
10.0000048857
10.0000058079
10.000006706
10.0000075782
10.0000084168
10.0000092211
10.0000099853
10.0000107098
10.0000113908
10.0000120304
10.0000126265
10.0000131825
10.0000136971
10.0000141747
10.0000146146
10.0000150211
10.0000153941
10.0000157378
10.0000160534
10.0000163476
10.0000166193
10.0000168719
10.0000171048
10.0000173218
10.000017522
10.0000177091
10.0000178822
10.0000180448
10.0000181957
10.0000183383
10.0000184711
10.0000185973
10.0000187151
10.0000188272
10.0000189318
10.0000190309
10.0000191223
10.0000192076
10.0000192839
10.000019352
10.000019408
10.0000194518
10.0000194786
10.0000194873
10.0000194728
10.0000194343
10.0000193775
10.0000193182
10.0000192638
10.0000000028
10.0000000662
10.0000001316
10.0000002032
10.0000002893
10.0000003914
10.0000005096
10.0000006426
10.0000007891
10.0000009463
10.0000011125
10.0000012844
10.0000014602
10.0000016367
10.0000018122
10.0000019838
10.00000215
10.000002308
10.0000024564
10.0000025928
10.0000027162
10.000002824
10.0000029158
10.0000029891
10.000003044
10.0000030781
10.0000030921
10.0000030834
10.0000030535
10.0000029998
10.0000029246
10.0000028251
10.0000027045
10.0000025598
10.0000023952
10.0000022074
10.0000020015
10.0000017743
10.0000015312
10.0000012696
10.0000009945
10.0000007041
10.0000004031
10.0000000898
9.99999976873
9.99999943776
9.99999910174
9.99999875785
9.99999841139
9.99999805929
9.99999770774
9.99999735391
9.99999700535
9.99999665986
9.99999632654
9.99999600399
9.99999570294
9.99999542304
9.9999951768
9.99999496512
9.99999480185
9.99999468822
9.99999463751
9.99999464899
9.9999947328
9.99999488441
9.99999510964
9.99999540053
9.99999576029
9.99999618023
9.99999666299
9.9999971997
9.99999779184
9.99999842975
9.99999911353
9.99999983288
10.0000005869
10.0000013652
10.0000021664
10.0000029802
10.0000038049
10.00000463
10.0000054535
10.0000062655
10.0000070642
10.000007841
10.0000085951
10.0000093195
10.0000100152
10.0000106769
10.0000113067
10.000011901
10.0000124629
10.0000129897
10.0000134853
10.0000139476
10.0000143808
10.0000147832
10.0000151603
10.0000155107
10.000015839
10.0000161439
10.0000164297
10.000016695
10.000016944
10.0000171752
10.0000173928
10.0000175949
10.0000177856
10.0000179629
10.0000181306
10.0000182864
10.0000184338
10.0000185704
10.0000186992
10.0000188174
10.0000189275
10.0000190263
10.0000191156
10.0000191912
10.0000192543
10.0000192997
10.0000193277
10.0000193332
10.0000193123
10.0000192691
10.0000192192
10.0000191469
10.0000000014
10.000000075
10.0000001427
10.0000002142
10.0000002952
10.0000003863
10.0000004882
10.0000006006
10.0000007236
10.0000008562
10.0000009977
10.0000011464
10.000001301
10.0000014595
10.0000016202
10.000001781
10.0000019403
10.0000020958
10.0000022462
10.0000023893
10.0000025241
10.0000026484
10.0000027616
10.0000028617
10.0000029486
10.00000302
10.000003077
10.0000031164
10.000003141
10.0000031462
10.0000031372
10.0000031072
10.0000030643
10.0000029994
10.0000029232
10.000002825
10.0000027166
10.0000025879
10.0000024492
10.0000022931
10.0000021267
10.0000019461
10.0000017552
10.0000015525
10.0000013399
10.0000011166
10.0000008841
10.0000006414
10.0000003902
10.0000001294
9.99999986141
9.99999958556
9.9999993053
9.99999902084
9.9999987368
9.99999845441
9.99999817941
9.99999791419
9.9999976658
9.99999743797
9.99999723896
9.99999707315
9.99999694845
9.99999686776
9.9999968364
9.99999685403
9.99999692243
9.99999703825
9.99999720178
9.99999740983
9.99999766371
9.99999796086
9.99999830261
9.99999868606
9.9999991121
9.99999957736
10.0000000821
10.0000006225
10.0000011982
10.0000018046
10.0000024399
10.0000030983
10.0000037767
10.0000044681
10.0000051687
10.0000058715
10.0000065732
10.0000072673
10.0000079512
10.0000086198
10.0000092715
10.0000099024
10.000010512
10.0000110973
10.0000116588
10.0000121943
10.000012705
10.0000131894
10.0000136491
10.0000140835
10.0000144945
10.0000148819
10.0000152476
10.0000155915
10.0000159157
10.00001622
10.0000165065
10.0000167751
10.0000170277
10.0000172639
10.0000174858
10.0000176927
10.0000178864
10.000018066
10.000018233
10.0000183864
10.0000185271
10.0000186539
10.0000187671
10.0000188646
10.0000189461
10.0000190087
10.0000190509
10.0000190703
10.0000190652
10.0000190375
10.0000190056
10.000018908
10.0000000051
10.0000000892
10.0000001676
10.0000002426
10.0000003224
10.0000004086
10.0000005019
10.0000006025
10.0000007108
10.0000008266
10.0000009497
10.0000010793
10.0000012147
10.0000013546
10.0000014981
10.0000016435
10.0000017897
10.0000019349
10.0000020782
10.0000022175
10.0000023523
10.0000024803
10.0000026018
10.0000027136
10.0000028177
10.0000029091
10.0000029929
10.0000030603
10.0000031222
10.0000031627
10.0000032019
10.0000032135
10.0000032298
10.0000032119
10.0000032046
10.0000031589
10.0000031261
10.0000030558
10.0000029952
10.0000029036
10.000002814
10.0000027025
10.0000025848
10.0000024522
10.0000023084
10.0000021525
10.0000019841
10.0000018035
10.0000016109
10.0000014059
10.0000011902
10.0000009636
10.000000729
10.0000004872
10.0000002423
9.9999999958
9.9999997529
9.99999951613
9.99999929174
9.99999908341
9.99999889847
9.99999874113
9.99999861827
9.9999985324
9.99999848747
9.99999848225
9.99999851664
9.99999858615
9.99999868925
9.99999882215
9.99999898502
9.99999917557
9.99999939472
9.99999964077
9.99999991513
10.0000002167
10.0000005473
10.0000009064
10.000001296
10.0000017153
10.0000021652
10.0000026436
10.0000031497
10.0000036798
10.0000042318
10.0000048011
10.0000053848
10.0000059782
10.0000065782
10.0000071802
10.0000077816
10.0000083783
10.0000089682
10.0000095477
10.0000101153
10.0000106683
10.0000112057
10.0000117252
10.0000122267
10.0000127085
10.0000131709
10.0000136127
10.0000140348
10.0000144362
10.0000148181
10.0000151798
10.0000155226
10.000015846
10.0000161512
10.0000164378
10.000016707
10.0000169583
10.0000171928
10.0000174098
10.0000176104
10.0000177938
10.0000179605
10.0000181096
10.0000182412
10.0000183541
10.0000184475
10.0000185198
10.0000185683
10.000018593
10.0000185893
10.0000185664
10.0000185354
10.000018444
10.0000000048
10.0000000969
10.0000001802
10.0000002621
10.000000347
10.0000004354
10.0000005276
10.0000006241
10.0000007256
10.0000008321
10.000000944
10.0000010609
10.0000011825
10.000001308
10.000001437
10.0000015682
10.0000017011
10.0000018341
10.0000019669
10.0000020973
10.0000022259
10.0000023493
10.0000024702
10.000002582
10.0000026926
10.0000027882
10.0000028873
10.0000029615
10.0000030497
10.0000030969
10.0000031762
10.0000031911
10.0000032633
10.0000032428
10.0000033068
10.000003253
10.0000033013
10.0000032231
10.0000032425
10.0000031521
10.0000031298
10.000003034
10.000002966
10.0000028613
10.0000027533
10.0000026295
10.00000249
10.0000023393
10.0000021726
10.0000019938
10.0000018019
10.0000015988
10.0000013864
10.0000011667
10.000000943
10.0000007182
10.0000004966
10.000000282
10.0000000796
9.99999989444
9.99999973296
9.99999960104
9.99999950459
9.99999944758
9.99999943242
9.99999945829
9.99999952228
9.99999961888
9.99999974325
9.99999989067
10.0000000589
10.0000002451
10.0000004482
10.0000006659
10.0000008982
10.0000011439
10.0000014044
10.00000168
10.0000019733
10.0000022855
10.0000026189
10.0000029738
10.0000033514
10.0000037506
10.0000041715
10.000004612
10.0000050715
10.0000055471
10.0000060373
10.0000065392
10.0000070508
10.0000075688
10.0000080911
10.0000086146
10.0000091372
10.0000096558
10.0000101687
10.0000106732
10.0000111679
10.0000116505
10.00001212
10.0000125748
10.0000130141
10.0000134367
10.0000138424
10.0000142302
10.0000146
10.0000149513
10.0000152841
10.0000155978
10.0000158928
10.0000161685
10.0000164252
10.0000166623
10.00001688
10.0000170778
10.0000172556
10.000017413
10.0000175494
10.0000176645
10.0000177562
10.0000178257
10.0000178667
10.0000178867
10.0000178691
10.0000178432
10.0000177791
10.0000177178
10.000000008
10.0000001067
10.0000001994
10.0000002864
10.0000003746
10.0000004644
10.0000005563
10.0000006508
10.0000007484
10.0000008495
10.0000009543
10.0000010627
10.0000011747
10.0000012898
10.0000014078
10.0000015277
10.0000016494
10.0000017711
10.0000018938
10.0000020139
10.000002135
10.0000022494
10.0000023671
10.0000024706
10.000002585
10.0000026707
10.0000027847
10.0000028428
10.0000029638
10.0000029802
10.0000031202
10.0000030781
10.0000032504
10.0000031353
10.0000033456
10.000003157
10.000003391
10.0000031529
10.0000033697
10.0000031287
10.0000032741
10.0000030755
10.0000031141
10.0000029697
10.0000029086
10.0000027906
10.0000026662
10.0000025365
10.0000023794
10.0000022197
10.0000020405
10.0000018531
10.0000016549
10.0000014499
10.0000012408
10.0000010309
10.0000008242
10.000000625
10.0000004382
10.0000002696
10.0000001259
10.0000000137
9.99999993985
9.99999990901
9.99999992401
9.99999998375
10.0000000843
10.0000002189
10.0000003813
10.0000005655
10.0000007684
10.0000009861
10.0000012164
10.0000014557
10.0000017031
10.0000019572
10.0000022176
10.0000024845
10.0000027591
10.0000030428
10.0000033368
10.0000036422
10.0000039594
10.0000042891
10.0000046331
10.0000049917
10.0000053648
10.0000057521
10.000006153
10.0000065665
10.0000069917
10.000007427
10.0000078709
10.0000083216
10.0000087771
10.0000092352
10.000009694
10.0000101511
10.0000106046
10.0000110525
10.0000114929
10.0000119241
10.0000123444
10.0000127525
10.000013147
10.0000135268
10.0000138909
10.0000142383
10.0000145684
10.0000148803
10.0000151733
10.000015447
10.0000157006
10.0000159338
10.0000161459
10.0000163366
10.0000165049
10.0000166511
10.0000167733
10.000016873
10.0000169453
10.0000169964
10.0000170118
10.0000170142
10.0000169616
10.0000169279
10.0000167986
10.0000167769
10.0000000063
10.0000001089
10.0000002039
10.000000297
10.0000003913
10.0000004859
10.0000005809
10.0000006766
10.0000007737
10.0000008726
10.0000009738
10.0000010774
10.0000011836
10.0000012918
10.0000014025
10.0000015141
10.0000016279
10.0000017406
10.0000018561
10.0000019666
10.0000020827
10.0000021862
10.000002304
10.000002393
10.0000025173
10.0000025791
10.0000027223
10.0000027349
10.0000029213
10.000002849
10.0000031181
10.0000029103
10.0000033139
10.000002915
10.0000034975
10.0000028756
10.0000036364
10.0000028268
10.0000036788
10.0000028112
10.0000035811
10.0000028426
10.0000033502
10.0000028738
10.0000030522
10.0000028215
10.0000027574
10.0000026388
10.0000024743
10.0000023484
10.0000021643
10.0000019971
10.0000018051
10.0000016114
10.0000014109
10.0000012096
10.0000010102
10.0000008178
10.0000006372
10.000000475
10.0000003384
10.0000002362
10.000000176
10.0000001642
10.0000002037
10.0000002941
10.0000004299
10.0000006032
10.0000008055
10.0000010301
10.0000012725
10.0000015292
10.0000017978
10.0000020744
10.0000023566
10.0000026417
10.000002929
10.0000032177
10.0000035091
10.0000038037
10.0000041028
10.0000044061
10.0000047144
10.0000050265
10.0000053435
10.0000056645
10.0000059916
10.0000063229
10.000006664
10.0000070147
10.000007375
10.0000077442
10.000008122
10.000008507
10.0000088983
10.0000092941
10.0000096931
10.0000100934
10.0000104934
10.0000108909
10.0000112845
10.000011672
10.000012052
10.0000124227
10.0000127826
10.0000131301
10.0000134641
10.000013783
10.0000140858
10.0000143714
10.0000146387
10.0000148868
10.0000151147
10.0000153217
10.0000155069
10.0000156698
10.0000158089
10.0000159252
10.000016015
10.0000160827
10.0000161185
10.0000161372
10.0000161102
10.0000160842
10.0000159774
10.0000159308
10.0000157145
10.0000157276
10.000000009
10.0000001164
10.0000002184
10.000000315
10.0000004117
10.0000005085
10.0000006049
10.0000007014
10.0000007983
10.0000008961
10.0000009953
10.0000010959
10.0000011984
10.000001302
10.0000014078
10.0000015134
10.000001622
10.0000017274
10.0000018386
10.0000019401
10.0000020549
10.0000021459
10.0000022693
10.0000023377
10.0000024826
10.000002505
10.0000027003
10.0000026318
10.0000029341
10.0000026954
10.0000032033
10.0000026676
10.000003528
10.0000025259
10.000003911
10.0000022788
10.0000043062
10.0000019981
10.0000045938
10.0000018246
10.0000046089
10.0000018977
10.0000042559
10.0000022162
10.0000036348
10.0000025712
10.0000030099
10.0000026983
10.0000025712
10.0000025245
10.0000022715
10.0000021822
10.0000019641
10.0000017992
10.0000016001
10.0000014077
10.0000012131
10.0000010251
10.0000008459
10.0000006838
10.0000005489
10.0000004509
10.0000003959
10.0000003864
10.0000004257
10.0000005155
10.0000006573
10.0000008457
10.000001075
10.0000013343
10.0000016179
10.0000019195
10.0000022329
10.0000025526
10.0000028747
10.0000031965
10.000003517
10.0000038363
10.0000041554
10.0000044758
10.0000047981
10.0000051221
10.0000054472
10.0000057722
10.0000060966
10.0000064195
10.0000067407
10.0000070602
10.000007378
10.0000076962
10.0000080141
10.0000083379
10.0000086675
10.0000090027
10.0000093426
10.0000096866
10.0000100334
10.0000103817
10.00001073
10.000011077
10.0000114207
10.0000117597
10.0000120921
10.0000124165
10.0000127311
10.0000130344
10.0000133249
10.0000136011
10.0000138617
10.0000141056
10.0000143312
10.0000145378
10.0000147239
10.0000148891
10.0000150315
10.0000151518
10.0000152469
10.0000153196
10.0000153632
10.0000153872
10.0000153737
10.0000153504
10.0000152686
10.0000152073
10.0000150341
10.0000149696
10.0000146588
10.0000146936
10.0000000071
10.000000117
10.0000002203
10.0000003216
10.0000004235
10.0000005247
10.0000006246
10.0000007235
10.0000008219
10.0000009201
10.0000010191
10.0000011183
10.0000012192
10.0000013199
10.0000014232
10.0000015246
10.0000016306
10.0000017304
10.0000018401
10.0000019338
10.0000020505
10.0000021293
10.0000022625
10.0000023084
10.0000024808
10.0000024569
10.0000027179
10.0000025499
10.0000030002
10.0000025457
10.0000033738
10.0000023811
10.0000039039
10.0000019798
10.0000046536
10.0000012914
10.0000056212
10.0000003764
10.0000066412
9.99999950378
10.0000073205
9.99999913873
10.0000071683
9.99999966799
10.0000060051
10.0000009493
10.0000043142
10.0000022201
10.0000029534
10.0000027482
10.0000023232
10.000002535
10.0000020837
10.0000020758
10.0000018039
10.0000016426
10.0000014371
10.0000012418
10.0000010469
10.0000008813
10.0000007577
10.0000006579
10.000000532
10.0000003488
10.0000001327
9.99999996385
9.99999992316
10.0000000576
10.0000003581
10.0000007825
10.0000012767
10.0000017939
10.0000023016
10.0000027816
10.0000032287
10.0000036446
10.0000040345
10.0000044048
10.0000047628
10.0000051137
10.000005461
10.0000058051
10.0000061458
10.0000064821
10.0000068136
10.0000071401
10.0000074622
10.0000077807
10.0000080954
10.0000084077
10.000008716
10.0000090231
10.0000093257
10.0000096311
10.0000099391
10.0000102488
10.0000105593
10.0000108695
10.0000111781
10.0000114837
10.000011785
10.0000120803
10.0000123682
10.0000126472
10.0000129156
10.0000131721
10.0000134152
10.0000136436
10.0000138561
10.0000140514
10.0000142282
10.0000143858
10.0000145226
10.0000146383
10.0000147308
10.0000148014
10.0000148455
10.0000148686
10.0000148599
10.0000148352
10.000014767
10.0000146984
10.0000145573
10.0000144585
10.0000142162
10.0000141301
10.0000137297
10.0000137712
10.0000000097
10.0000001239
10.0000002334
10.0000003373
10.000000441
10.000000544
10.0000006456
10.0000007458
10.0000008453
10.000000944
10.0000010431
10.0000011418
10.0000012419
10.0000013409
10.0000014429
10.0000015416
10.0000016462
10.0000017422
10.0000018513
10.0000019397
10.0000020582
10.0000021291
10.0000022688
10.0000023012
10.0000024903
10.0000024397
10.0000027408
10.0000025128
10.0000030591
10.0000024602
10.0000035212
10.0000021749
10.0000042578
10.0000014888
10.0000054564
10.0000001934
10.0000073021
9.99999815427
10.0000097945
9.99999556709
10.0000124375
9.9999932571
10.0000140624
9.99999260593
10.0000132931
9.9999946235
10.0000098493
9.99999858055
10.000005467
10.0000020567
10.000002598
10.0000032489
10.0000018718
10.0000027364
10.0000018904
10.0000020483
10.0000016913
10.0000014866
10.0000012883
10.0000012578
10.0000011683
10.0000005134
9.99999877161
9.99999587969
9.99999244982
9.99998947887
9.99998781429
9.99998778926
9.99998920011
9.99999152797
9.99999420014
9.99999677089
9.99999898677
10.0000007647
10.0000021335
10.0000031727
10.0000039703
10.0000046033
10.0000051325
10.0000056034
10.0000060471
10.0000064826
10.0000069172
10.0000073491
10.00000777
10.0000081706
10.0000085429
10.0000088845
10.0000091963
10.0000094847
10.0000097551
10.0000100162
10.0000102707
10.000010525
10.0000107772
10.0000110352
10.0000112967
10.0000115596
10.0000118212
10.0000120795
10.0000123323
10.0000125782
10.0000128156
10.0000130435
10.0000132605
10.0000134657
10.0000136577
10.0000138356
10.0000139978
10.0000141435
10.000014271
10.0000143796
10.0000144674
10.0000145345
10.0000145777
10.0000145997
10.0000145937
10.0000145685
10.0000145083
10.0000144364
10.0000143144
10.000014202
10.0000140032
10.000013868
10.000013561
10.0000134513
10.0000129737
10.0000130092
10.0000000079
10.0000001245
10.0000002353
10.0000003433
10.0000004515
10.0000005584
10.0000006634
10.0000007663
10.000000868
10.0000009683
10.0000010685
10.0000011676
10.0000012679
10.0000013666
10.0000014682
10.0000015658
10.0000016697
10.0000017646
10.0000018724
10.0000019605
10.0000020764
10.0000021498
10.0000022837
10.0000023253
10.0000025005
10.0000024731
10.000002743
10.0000025642
10.0000030496
10.0000025373
10.0000035046
10.0000022656
10.0000042809
10.0000015048
10.0000056963
9.99999983907
10.0000082466
9.9999967033
10.0000124794
9.99999166277
10.0000185123
9.99998513133
10.0000251221
9.99997931104
10.0000291086
9.99997806214
10.0000266691
9.9999840447
10.0000173975
9.99999466964
10.0000066693
10.000002948
10.0000010491
10.0000047006
10.0000009499
10.0000032241
10.0000013841
10.0000017967
10.0000022067
10.0000026616
9.99999907932
9.99998685964
9.99996344516
9.99993153114
9.99989881934
9.99987423823
9.99986368482
9.99986803888
9.99988399762
9.99990635597
9.99993005023
9.99995144522
9.99996871146
9.99998151159
9.99999041038
9.99999632036
10.0000001364
10.0000025652
10.0000040956
10.0000050387
10.0000055948
10.0000059104
10.0000061119
10.0000063093
10.0000065859
10.0000069862
10.0000075132
10.0000081365
10.0000088069
10.0000094726
10.00001009
10.0000106319
10.0000110861
10.0000114554
10.0000117504
10.0000119874
10.0000121853
10.0000123625
10.00001253
10.0000126954
10.0000128627
10.0000130334
10.0000132069
10.0000133812
10.0000135535
10.0000137208
10.0000138796
10.0000140271
10.00001416
10.0000142763
10.0000143733
10.0000144497
10.0000145029
10.0000145334
10.0000145371
10.0000145183
10.0000144683
10.0000143993
10.0000142911
10.0000141748
10.0000140016
10.000013847
10.0000135939
10.0000134225
10.0000130571
10.0000129209
10.0000123795
10.0000123986
10.0000000103
10.0000001313
10.0000002477
10.0000003581
10.0000004678
10.0000005763
10.000000683
10.0000007877
10.000000891
10.0000009927
10.000001094
10.000001194
10.0000012948
10.000001394
10.0000014953
10.0000015937
10.0000016961
10.0000017929
10.0000018972
10.0000019906
10.0000020982
10.000002185
10.0000022994
10.000002373
10.0000025025
10.0000025484
10.0000027143
10.0000026969
10.0000029546
10.0000027829
10.0000032768
10.000002717
10.0000038163
10.0000022838
10.0000048919
10.0000010054
10.0000071753
9.99999795223
10.0000118651
9.99999165323
10.0000205665
9.99998061403
10.0000341697
9.99996521475
10.0000501947
9.99995072553
10.0000603864
9.9999475533
10.0000542871
9.99996297718
10.0000310021
9.99998955351
10.0000055734
10.0000077363
9.99999658784
10.0000074908
9.99999779682
10.0000070625
10.0000079286
9.99999176272
9.99992100111
9.99977143059
9.99954333284
9.99927688401
9.99903734699
9.99888444665
9.99884794472
9.99892089228
9.99907137547
9.99925934328
9.99944874899
9.99961481231
9.99974589716
9.99984096777
9.99990527494
9.99994642689
9.99997178795
9.99998724504
9.99999691573
10.0000033321
10.0000078115
10.0000108811
10.0000126763
10.000013248
10.0000127358
10.0000114129
10.0000096396
10.0000077851
10.0000061539
10.0000049471
10.000004254
10.0000040709
10.0000043294
10.0000049281
10.0000057569
10.000006714
10.0000077172
10.0000087035
10.0000096369
10.0000104916
10.0000112549
10.0000119236
10.0000125002
10.0000129911
10.0000134038
10.0000137467
10.0000140271
10.0000142523
10.0000144277
10.0000145589
10.0000146491
10.0000147026
10.0000147204
10.000014707
10.0000146602
10.0000145874
10.0000144799
10.0000143541
10.0000141865
10.0000140152
10.0000137834
10.0000135792
10.0000132691
10.0000130565
10.000012636
10.0000124683
10.0000118737
10.000011868
10.0000000088
10.0000001322
10.0000002501
10.0000003642
10.0000004779
10.00000059
10.0000006999
10.0000008074
10.0000009132
10.0000010171
10.0000011203
10.000001222
10.0000013239
10.0000014247
10.0000015261
10.0000016266
10.0000017278
10.0000018283
10.0000019288
10.0000020301
10.0000021284
10.0000022322
10.0000023249
10.0000024356
10.0000025155
10.0000026423
10.0000026961
10.000002856
10.0000028617
10.0000030787
10.0000030123
10.0000032982
10.0000031775
10.000003443
10.0000034926
10.0000032558
10.0000043964
10.0000019924
10.0000070661
9.99999784374
10.0000141052
9.99998727037
10.0000298981
9.99996548818
10.0000585269
9.99993099199
10.000096354
9.99989509958
10.0001231888
9.99988491579
10.000110767
9.99992129769
10.0000532951
9.99998930414
9.99999214954
10.0000181186
9.99999393017
10.0000465088
9.99995552007
9.99963885113
9.99886836924
9.99759559382
9.99593144769
9.99421062651
9.99283699778
9.99211228697
9.99213668188
9.9928025078
9.99388963287
9.99515876381
9.9964036479
9.99748385539
9.99833445614
9.99895167399
9.99936862408
9.99963282048
9.99979062017
9.99987965748
9.99992737833
9.99995253734
9.99996726323
9.99997871321
9.99999033787
10.0000029987
10.0000160376
10.0000282039
10.0000383244
10.0000456614
10.0000500039
10.0000515825
10.0000509086
10.000048609
10.0000452988
10.0000415023
10.0000376199
10.0000339248
10.0000305806
10.0000276654
10.0000251951
10.0000231538
10.0000214968
10.0000201698
10.0000191174
10.0000182877
10.0000176344
10.0000171182
10.0000167064
10.0000163722
10.0000160943
10.000015856
10.0000156434
10.000015447
10.000015257
10.0000150697
10.0000148762
10.0000146788
10.0000144647
10.0000142473
10.0000140002
10.0000137603
10.000013467
10.0000132107
10.0000128513
10.0000125989
10.0000121367
10.0000119381
10.0000113059
10.000011272
10.0000000109
10.0000001388
10.0000002618
10.0000003781
10.0000004932
10.0000006067
10.0000007183
10.0000008278
10.0000009355
10.0000010415
10.0000011462
10.00000125
10.000001353
10.0000014558
10.0000015577
10.0000016606
10.0000017614
10.0000018655
10.0000019641
10.0000020715
10.000002165
10.00000228
10.000002362
10.0000024939
10.0000025507
10.0000027194
10.0000027219
10.0000029697
10.0000028572
10.0000032698
10.0000029218
10.0000036645
10.0000028569
10.0000042219
10.0000025854
10.0000050053
10.0000020792
10.0000059286
10.0000016413
10.0000062494
10.0000027705
10.0000031885
10.0000102016
9.99998926154
10.0000347411
9.99995061525
10.0000911591
9.99987655679
10.0001781542
9.99978869224
10.0002501446
9.99975057049
10.000236608
9.99983708781
10.0000594514
10.0000392531
10.0000583018
9.99995705142
9.99859239682
9.99553512856
9.98985018142
9.98188666518
9.97260866274
9.96397703095
9.95784526598
9.95534330555
9.95661299294
9.96086634854
9.96695784006
9.97378200289
9.9803993239
9.98615373561
9.99073147396
9.99410426379
9.99642546804
9.99793030598
9.99885764669
9.99940381121
9.99970880087
9.99986406203
9.9999278033
9.99993829255
9.99992188197
9.99989671137
9.99987428741
9.99986059061
9.99985736533
9.99986357541
9.99987676232
9.99989409526
9.99991303345
9.99993164264
9.9999486603
9.99996341581
9.99997568759
9.9999855543
9.99999326603
9.99999915055
10.0000035474
10.0000067735
10.0000091045
10.0000107645
10.0000119309
10.0000127394
10.0000132917
10.0000136618
10.000013903
10.0000140522
10.0000141351
10.0000141687
10.0000141644
10.0000141288
10.0000140668
10.0000139802
10.0000138702
10.0000137382
10.0000135812
10.0000134053
10.0000131974
10.0000129797
10.000012712
10.0000124594
10.000012114
10.0000118451
10.000011386
10.0000111472
10.0000105062
10.0000104039
10.0000000098
10.0000001401
10.0000002649
10.0000003845
10.000000503
10.0000006196
10.0000007341
10.0000008465
10.0000009568
10.0000010654
10.0000011724
10.0000012785
10.0000013834
10.0000014885
10.000001592
10.0000016972
10.0000017994
10.000001906
10.0000020061
10.0000021162
10.000002212
10.0000023294
10.0000024158
10.0000025487
10.0000026144
10.0000027799
10.0000028003
10.0000030359
10.0000029563
10.0000033432
10.0000030449
10.0000037565
10.0000029881
10.0000043842
10.0000026353
10.0000054253
10.000001719
10.0000072161
9.99999981814
10.0000102335
9.9999964572
10.0000147358
9.99999209254
10.0000184711
9.99999281168
10.0000083229
10.0000226416
9.99994713998
10.0001277648
9.99979504815
10.0003172576
9.99958693504
10.0005374612
9.99937001724
10.0005588725
10.0000377953
9.9998313692
9.99606479865
9.9852290069
9.96574488942
9.9354305236
9.89806681358
9.85836419089
9.82501028579
9.80411495564
9.79865784811
9.80804913902
9.82830246024
9.85485202928
9.88384719894
9.91194970662
9.93666168063
9.956694743
9.97180079795
9.98243785686
9.9894658769
9.99386706236
9.99652653841
9.99811645872
9.99907971107
9.9996751288
10.0000417055
10.0002536043
10.0003555459
10.000380357
10.0003551308
10.0003021371
10.0002383566
10.0001753688
10.0001199427
10.0000751031
10.0000413173
10.0000175506
10.0000020691
9.99999297382
9.99998850934
9.99998720704
9.99998792232
9.99998981437
9.99999229451
9.99999497733
9.99999762132
10.0000000875
10.0000023057
10.0000042516
10.0000059261
10.0000073467
10.0000085353
10.0000095198
10.0000103217
10.0000109688
10.0000114743
10.0000118647
10.0000121419
10.0000123344
10.0000124302
10.0000124651
10.0000124102
10.0000123131
10.0000121264
10.0000119104
10.0000116043
10.0000112682
10.0000108555
10.0000103781
10.0000098878
10.0000092165
10.0000087247
10.0000000117
10.0000001463
10.0000002757
10.0000003973
10.0000005169
10.0000006349
10.000000751
10.0000008653
10.0000009776
10.0000010884
10.0000011976
10.000001306
10.0000014131
10.0000015203
10.000001626
10.0000017331
10.0000018378
10.0000019459
10.0000020498
10.0000021602
10.0000022624
10.0000023775
10.000002476
10.0000025999
10.0000026896
10.0000028315
10.0000029001
10.0000030809
10.0000030976
10.0000033673
10.0000032558
10.0000037339
10.0000033117
10.000004276
10.0000031288
10.0000051825
10.0000024503
10.0000067851
10.0000008502
10.0000096297
9.99999757363
10.0000148878
9.99999063912
10.0000259343
9.99997501867
10.0000481752
9.99995056909
10.0000636274
9.99997255595
9.99996924221
10.0001593398
9.999725607
10.0004396707
9.99909098944
10.0021780426
9.99833196494
9.99117468612
9.96113054876
9.90439642601
9.81597291381
9.69724185821
9.56584782095