/*--------------------------------*- C++ -*----------------------------------*\
  =========                 |
  \\      /  F ield         | OpenFOAM: The Open Source CFD Toolbox
   \\    /   O peration     | Website:  https://openfoam.org
    \\  /    A nd           | Version:  7
     \\/     M anipulation  |
\*---------------------------------------------------------------------------*/
FoamFile
{
    version     2.0;
    format      ascii;
    class       surfaceScalarField;
    location    "480";
    object      phi;
}
// * * * * * * * * * * * * * * * * * * * * * * * * * * * * * * * * * * * * * //

dimensions      [0 3 -1 0 0 0 0];

internalField   nonuniform List<scalar> 
16192
(
6.92881269822e-10
2.44618730178e-10
4.93479414548e-10
1.9940185254e-10
3.64731333538e-10
1.28748078182e-10
2.82173844391e-10
8.25574862327e-11
2.27606742601e-10
5.45670986238e-11
1.9008015271e-10
3.75265865684e-11
1.63245389014e-10
2.68347603079e-11
1.43384828067e-10
1.98605575642e-11
1.28260484278e-10
1.51243404447e-11
1.16477376857e-10
1.17831041489e-11
1.07133509406e-10
9.34386426225e-12
9.96245792059e-11
7.5089271158e-12
9.35323085186e-11
6.0922677089e-12
8.85586909158e-11
4.97361475099e-12
8.44860476824e-11
4.07264050937e-12
8.11519962755e-11
3.33404883575e-12
7.84332882961e-11
2.71870556421e-12
7.62350795103e-11
2.19820655695e-12
7.44836221542e-11
1.75145531875e-12
7.31211724326e-11
1.36244791143e-12
7.21023681835e-11
1.01880267263e-12
7.13916056088e-11
7.10761272977e-13
7.0961109379e-11
4.30495210102e-13
7.07894938786e-11
1.71614809561e-13
7.086067815e-11
-7.11846254611e-14
7.1163059336e-11
-3.0238115107e-13
7.16888762839e-11
-5.25816515318e-13
7.24337169168e-11
-7.44839744642e-13
7.339613285e-11
-9.62414580483e-13
7.45773327578e-11
-1.18119802666e-12
7.59809310731e-11
-1.40359589723e-12
7.76127326642e-11
-1.63179856635e-12
7.94805348336e-11
-1.86779853059e-12
8.15939290865e-11
-2.11338992508e-12
8.39640834045e-11
-2.37014929648e-12
8.66034851889e-11
-2.63939599031e-12
8.95256220055e-11
-2.92213025049e-12
9.27445763237e-11
-3.2189468995e-12
9.62745078864e-11
-3.52992330098e-12
1.0012899868e-10
-3.85448161037e-12
1.04320237091e-10
-4.19122832887e-12
1.08858026348e-10
-4.53777820447e-12
1.13748614019e-10
-4.89057568954e-12
1.18993361086e-10
-5.2447340914e-12
1.24587295387e-10
-5.59392039891e-12
1.30517629726e-10
-5.93031945705e-12
1.36762358624e-10
-6.2447131306e-12
1.43289078977e-10
-6.52670366812e-12
1.50054190679e-10
-6.76509423034e-12
1.57002620362e-10
-6.94841142895e-12
1.64068159162e-10
-7.06551995203e-12
1.7117442412e-10
-7.10624557571e-12
1.78236349901e-10
-7.06190613702e-12
1.85162033171e-10
-6.92566349501e-12
1.91854714137e-10
-6.69266142688e-12
1.98214722927e-10
-6.35998969074e-12
2.04141323392e-10
-5.9265822625e-12
2.09534525655e-10
-5.39318523484e-12
2.14297064349e-10
-4.76252338266e-12
2.18336854282e-10
-4.03977667557e-12
2.21570284594e-10
-3.23341970511e-12
2.23926558045e-10
-2.35626581429e-12
2.25352759891e-10
-1.42619769954e-12
2.25818621481e-10
-4.65861080058e-13
2.25319532311e-10
4.99085766277e-13
2.23876694223e-10
1.44283092893e-12
2.21534255953e-10
2.34242739485e-12
2.18354253746e-10
3.17998805076e-12
2.14410821931e-10
3.94341461413e-12
2.0978510806e-10
4.6256941569e-12
2.04561694574e-10
5.22339153761e-12
1.98826561564e-10
5.73510936387e-12
1.92666140538e-10
6.1603959622e-12
1.86166901136e-10
6.49921343566e-12
1.79414986106e-10
6.75188841945e-12
1.72495541605e-10
6.91941770876e-12
1.6549155509e-10
7.00395973998e-12
1.58482223378e-10
7.00930532829e-12
1.51541056401e-10
6.94114109925e-12
1.44734022837e-10
6.80700846838e-12
1.38118029708e-10
6.61596885632e-12
1.31739941472e-10
6.37806499052e-12
1.25636221343e-10
6.10369790087e-12
1.19833170006e-10
5.80303027415e-12
1.14347655608e-10
5.48549445128e-12
1.09188191145e-10
5.15944573014e-12
1.04356206196e-10
4.83196734577e-12
9.98473797068e-11
4.50881007571e-12
9.56529283526e-11
4.19443601783e-12
9.17607811163e-11
3.89213300966e-12
8.81565993344e-11
3.60416853913e-12
8.48246284601e-11
3.33195863293e-12
8.17483831824e-11
3.07623390938e-12
7.89111807211e-11
2.83719197921e-12
7.62965407714e-11
2.61463022963e-12
7.38884745943e-11
2.40805723373e-12
7.16716832192e-11
2.21678309123e-12
6.9631684795e-11
2.03999081821e-12
6.77548865839e-11
1.87679117306e-12
6.60286162759e-11
1.72626386016e-12
6.44411227704e-11
1.58748754428e-12
6.29815561109e-11
1.45956121062e-12
6.1639932381e-11
1.34161869509e-12
6.04070895422e-11
1.23283824695e-12
5.92746369895e-11
1.13244830993e-12
5.82349023101e-11
1.03973081749e-12
5.72808760163e-11
9.54022722614e-13
5.6406156078e-11
8.7471669312e-13
5.56048916378e-11
8.012614342e-13
5.48717264964e-11
7.33162413029e-13
5.42017405634e-11
6.69983399246e-13
5.35903885995e-11
6.11349666432e-13
5.30334329761e-11
5.56953482803e-13
5.25268678956e-11
5.06563142174e-13
5.20668292399e-11
4.60036843583e-13
5.16494838297e-11
4.17343774074e-13
5.1270886811e-11
3.78595486701e-13
5.0926792581e-11
3.44092856958e-13
5.06123946903e-11
3.14396610737e-13
5.03219584967e-11
2.90435069728e-13
5.00482859686e-11
2.7367150365e-13
4.97819159372e-11
2.66369180063e-13
4.95099000192e-11
2.72015191483e-13
4.92139120281e-11
2.95987464238e-13
4.88674023767e-11
3.46509265932e-13
4.84319816964e-11
4.35420499772e-13
4.78562849535e-11
5.75696852352e-13
7.38755013987e-13
9.53366263127e-10
2.28752464742e-10
8.59576597937e-10
2.93191512178e-10
7.45063096892e-10
2.43261573399e-10
6.41982868027e-10
1.85637708826e-10
5.56961533762e-10
1.39588426229e-10
4.88789678459e-10
1.0569843503e-10
4.34436860014e-10
8.11875718718e-11
3.90942593217e-10
6.33548175306e-11
3.5588703156e-10
5.01798953746e-11
3.27408964625e-10
4.02611645028e-11
3.0410589258e-10
3.26469298963e-11
2.84924085541e-10
2.66907279393e-11
2.69067682312e-10
2.19486649366e-11
2.55930206847e-10
1.81110844563e-11
2.45044800459e-10
1.49580413983e-11
2.36048486975e-10
1.23303571176e-11
2.28656520004e-10
1.01106676524e-11
2.22643859482e-10
8.21086255998e-12
2.17831675134e-10
6.5636355391e-12
2.14077409672e-10
5.11670968596e-12
2.1126738285e-10
3.82882628168e-12
2.09311227745e-10
2.66691369487e-12
2.08137662518e-10
1.60405832141e-12
2.076912466e-10
6.18029241019e-13
2.07929869569e-10
-3.09808411354e-13
2.08822789189e-10
-1.19530084812e-12
2.10349083031e-10
-2.05210965084e-12
2.12496414962e-10
-2.89217010898e-12
2.15260036588e-10
-3.72603373255e-12
2.18641959834e-10
-4.56311780794e-12
2.22650246785e-10
-5.41187834319e-12
2.27298369806e-10
-6.27991595261e-12
2.32604597256e-10
-7.17401916489e-12
2.38591361459e-10
-8.10014603876e-12
2.45284563623e-10
-9.06334204585e-12
2.52712768892e-10
-1.00675904262e-11
2.60906241227e-10
-1.11155902862e-11
2.6989576675e-10
-1.22084585665e-11
2.79711213543e-10
-1.3345354646e-11
2.90379781213e-10
-1.45230321552e-11
3.01923903363e-10
-1.57353316609e-11
3.14358787275e-10
-1.6972641534e-11
3.27689605661e-10
-1.82213717344e-11
3.41908401689e-10
-1.94635059716e-11
3.56990824941e-10
-2.06763177327e-11
3.72892883523e-10
-2.18323503345e-11
3.89547961424e-10
-2.28997616257e-11
4.06864401195e-10
-2.38431123698e-11
4.24723965306e-10
-2.4624625776e-11
4.42981452856e-10
-2.52058650521e-11
4.61465644465e-10
-2.55496765687e-11
4.79981590579e-10
-2.56221559119e-11
4.98314070866e-10
-2.53943503263e-11
5.16231897918e-10
-2.48434545794e-11
5.33492673912e-10
-2.39534022288e-11
5.49847683916e-10
-2.27149658955e-11
5.65046798861e-10
-2.11256656133e-11
5.78843499724e-10
-1.91898574762e-11
5.91000338909e-10
-1.69193378603e-11
6.0129530902e-10
-1.43347268337e-11
6.09529624367e-10
-1.1467720783e-11
6.15537115881e-10
-8.36374943308e-12
6.19194541681e-10
-5.08362260497e-12
6.20430898214e-10
-1.70222395029e-12
6.1923316246e-10
1.69680789098e-12
6.15646532515e-10
5.02944033165e-12
6.09768901764e-10
8.22003118724e-12
6.01741053628e-10
1.12078036081e-11
5.91735193378e-10
1.39492374054e-11
5.7994441819e-10
1.64164278931e-11
5.66574664253e-10
1.85931007749e-11
5.51839331871e-10
2.04703946556e-11
5.3595591928e-10
2.20437597696e-11
5.19143750243e-10
2.33113327802e-11
5.01621954759e-10
2.42736338953e-11
4.83607055049e-10
2.49342677373e-11
4.65309798748e-10
2.5301167114e-11
4.46931261301e-10
2.5387795056e-11
4.28658581191e-10
2.52137749476e-11
4.10660880187e-10
2.48046649607e-11
3.93085910384e-10
2.41908960157e-11
3.76057819699e-10
2.34061150876e-11
3.5967621031e-10
2.24852687889e-11
3.44016460053e-10
2.14627442199e-11
3.29131118807e-10
2.03708015401e-11
3.15052105202e-10
1.92384273616e-11
3.01793401199e-10
1.80906414658e-11
2.8935396614e-10
1.6948217319e-11
2.77720640901e-10
1.58277353739e-11
2.66870876948e-10
1.47418729601e-11
2.56775184151e-10
1.36998390629e-11
2.47399244856e-10
1.27078773212e-11
2.38705679526e-10
1.17697801482e-11
2.30655478333e-10
1.08873755374e-11
2.23209128018e-10
1.00609642249e-11
2.16327473452e-10
9.28969674365e-12
2.09972354172e-10
8.57188845458e-12
2.04107056484e-10
7.90527568413e-12
1.9869661664e-10
7.28721917812e-12
1.93708007485e-10
6.71486212402e-12
1.89110234613e-10
6.18525036975e-12
1.84874364765e-10
5.69542182986e-12
1.80973503439e-10
5.24247151493e-12
1.77382736322e-10
4.82359756007e-12
1.7407904446e-10
4.43613297992e-12
1.71041201771e-10
4.07756691396e-12
1.6824965973e-10
3.7455586862e-12
1.6568642356e-10
3.43794729331e-12
1.63334921077e-10
3.15275877737e-12
1.61179865265e-10
2.88821351306e-12
1.59207108731e-10
2.64273557844e-12
1.57403488145e-10
2.4149662598e-12
1.55756653707e-10
2.20378422741e-12
1.54254878265e-10
2.00833519864e-12
1.5288683709e-10
1.8280748881e-12
1.51641348061e-10
1.66282994556e-12
1.50507057555e-10
1.51288336367e-12
1.49472055339e-10
1.37909270357e-12
1.48523397548e-10
1.26305226241e-12
1.47646518212e-10
1.1673125462e-12
1.46824517323e-10
1.09567080053e-12
1.46037348485e-10
1.05353676453e-12
1.45261026212e-10
1.04833656459e-12
1.44467239002e-10
1.08977422469e-12
1.43624453371e-10
1.18929493533e-12
1.42703318483e-10
1.35655581998e-12
1.41694714441e-10
1.58430137832e-12
1.79345606852e-12
9.76215184692e-10
1.90037277226e-10
9.63004169999e-10
3.06402520299e-10
9.06201586358e-10
3.00064150313e-10
8.33978046911e-10
2.57861241432e-10
7.61326886544e-10
2.12239579496e-10
6.94654451995e-10
1.72370862346e-10
6.36025523508e-10
1.39816493093e-10
5.85538939523e-10
1.13841394297e-10
5.42507047571e-10
9.32117801927e-11
5.06005111216e-10
7.67630938487e-11
4.75109860328e-10
6.35421739123e-11
4.4899113865e-10
5.28094429144e-11
4.26937167132e-10
4.40026299276e-11
4.08351807018e-10
3.6696438253e-11
3.92741569893e-10
3.05682724237e-11
3.79700233478e-10
2.53716876923e-11
3.68894283496e-10
2.0916612066e-11
3.60050288715e-10
1.70548520919e-11
3.52944397493e-10
1.36695218462e-11
3.47393781044e-10
1.0667321609e-11
3.43249734224e-10
7.97286898219e-12
3.40392137214e-10
5.52450705398e-12
3.38725012978e-10
3.27117939315e-12
3.3817295854e-10
1.1700810716e-12
3.38678268536e-10
-8.15120436791e-13
3.40198602685e-10
-2.7156363735e-12
3.42705080286e-10
-4.5585879517e-12
3.46180708294e-10
-6.36779805511e-12
3.50619059949e-10
-8.16438454111e-12
3.5602313498e-10
-9.96719111393e-12
3.62404339137e-10
-1.1793079871e-11
3.69781525916e-10
-1.36570990968e-11
3.78180043982e-10
-1.55725325664e-11
3.87630734281e-10
-1.75508305318e-11
3.98168817813e-10
-1.96014186105e-11
4.09832613491e-10
-2.17313778575e-11
4.22662021862e-10
-2.39449891155e-11
4.36696710941e-10
-2.62431366911e-11
4.51973941664e-10
-2.86225729973e-11
4.68525980202e-10
-3.10750567874e-11
4.86377059804e-10
-3.35863958377e-11
5.05539884891e-10
-3.61354495681e-11
5.26011711328e-10
-3.86931795303e-11
5.47770097272e-10
-4.12218715897e-11
5.70768490596e-10
-4.36746891188e-11
5.94931903474e-10
-4.5995739589e-11
6.20153002941e-10
-4.81208359024e-11
6.46289008324e-10
-4.99790909648e-11
6.73159800825e-10
-5.14953900872e-11
7.00547603709e-10
-5.25936383973e-11
7.28198460563e-10
-5.32005028525e-11
7.55825540551e-10
-5.32492044775e-11
7.83114059853e-10
-5.26828378372e-11
8.09727406404e-10
-5.14567693022e-11
8.35313963342e-10
-4.95399279607e-11
8.59514215297e-10
-4.6915187752e-11
8.81967958185e-10
-4.35793803411e-11
9.02321721258e-10
-3.95435949521e-11
9.20236727661e-10
-3.48343222043e-11
9.35397879688e-10
-2.94958610467e-11
9.47524344243e-10
-2.35941727559e-11
9.56382052991e-10
-1.72214514078e-11
9.61797341377e-10
-1.0498910736e-11
9.63669284001e-10
-3.57417297209e-12
9.61977326432e-10
3.3887522535e-12
9.56781663364e-10
1.02250838483e-11
9.48216032719e-10
1.67856363368e-11
9.36474885139e-10
2.29489206234e-11
9.21798338134e-10
2.86257494037e-11
9.04458292151e-10
3.37564353554e-11
8.84747638538e-10
3.83037129641e-11
8.62972715986e-10
4.22452737607e-11
8.39448133707e-10
4.5568297146e-11
8.14492887621e-10
4.82665333048e-11
7.88426817351e-10
5.03396584171e-11
7.61566640897e-10
5.17943989104e-11
7.34221124627e-10
5.26466388897e-11
7.06685422361e-10
5.29234540818e-11
6.79235055722e-10
5.26640997528e-11
6.52120241736e-10
5.19194388326e-11
6.25561249305e-10
5.07498500934e-11
5.99745270274e-10
4.92220577398e-11
5.7482501714e-10
4.74054874864e-11
5.50919004931e-10
4.53687240685e-11
5.28113277798e-10
4.31764982952e-11
5.06464231153e-10
4.08874456746e-11
4.86002142407e-10
3.85527037787e-11
4.66735050003e-10
3.62152852023e-11
4.48652678488e-10
3.39100841018e-11
4.31730185787e-10
3.166434459e-11
4.15931582155e-10
2.94984231516e-11
4.01212738473e-10
2.74267029627e-11
3.87523951075e-10
2.54585508274e-11
3.74812069606e-10
2.35992415873e-11
3.63022216357e-10
2.18508031879e-11
3.52099141204e-10
2.02127587332e-11
3.41988260096e-10
1.8682757368e-11
3.32636427588e-10
1.72570969684e-11
3.23992489099e-10
1.59311472738e-11
3.16007655908e-10
1.46996857616e-11
3.0863573842e-10
1.35571590126e-11
3.0183326955e-10
1.24978825827e-11
2.95559542729e-10
1.15161908212e-11
2.89776586104e-10
1.06065472966e-11
2.84449088191e-10
9.76362451252e-12
2.79544288441e-10
8.98236082092e-12
2.75031840999e-10
8.25800071009e-12
2.70883659096e-10
7.58612423728e-12
2.67073743179e-10
6.96267008664e-12
2.635779957e-10
6.38395677536e-12
2.60374021647e-10
5.84670570389e-12
2.57440914072e-10
5.34807024202e-12
2.54759020285e-10
4.88567466139e-12
2.5230968477e-10
4.45766765067e-12
2.50074961651e-10
4.06279514634e-12
2.48037290613e-10
3.70049838583e-12
2.46179128563e-10
3.37104299731e-12
2.4448253387e-10
3.07568523508e-12
2.42928705497e-10
2.81687866336e-12
2.41497498352e-10
2.59851799768e-12
2.40166970148e-10
2.4261975422e-12
2.38913089438e-10
2.30741634759e-12
2.37709873963e-10
2.25155120844e-12
2.36530497622e-10
2.26915014463e-12
2.35350363248e-10
2.36942940935e-12
2.34153848613e-10
2.55307099234e-12
2.32945228226e-10
2.79292249165e-12
2.98763377328e-12
9.71785123412e-10
1.55752150847e-10
9.86774804602e-10
2.91412831855e-10
9.68416247772e-10
3.18422699971e-10
9.28329768372e-10
2.97947713339e-10
8.78368352419e-10
2.62200987611e-10
8.26050699005e-10
2.24688507753e-10
7.75522779468e-10
1.90344404575e-10
7.28814107316e-10
1.60550058413e-10
6.86735578464e-10
1.35290301065e-10
6.49436432398e-10
1.14062232019e-10
6.16730093589e-10
9.62485049245e-11
5.88277886603e-10
8.12616422215e-11
5.63689201678e-10
6.85913073038e-11
5.42573847098e-10
5.78117854337e-11
5.2456761426e-10
4.85744980266e-11
5.09343167064e-10
4.05961278437e-11
4.96613128233e-10
3.36466440605e-11
4.86129210216e-10
2.75387635082e-11
4.77679511177e-10
2.21192145439e-11
4.71085119586e-10
1.72617071496e-11
4.66196622583e-10
1.286136025e-11
4.62890809143e-10
8.83031511094e-12
4.61067692343e-10
5.09429118821e-12
4.60647886093e-10
1.58988273583e-12
4.61570325473e-10
-1.73756395475e-12
4.63790292456e-10
-4.93560700054e-12
4.67277709336e-10
-8.0460079497e-12
4.72015652259e-10
-1.11057435188e-11
4.77999032161e-10
-1.41477663702e-11
4.85233394037e-10
-1.72015542467e-11
4.93733784018e-10
-2.02934703967e-11
5.03523632561e-10
-2.34469474087e-11
5.14633599252e-10
-2.66824982028e-11
5.27100321911e-10
-3.00175512422e-11
5.40965008506e-10
-3.34661023092e-11
5.5627180713e-10
-3.70381725608e-11
5.73065886114e-10
-4.0739063095e-11
5.91391156397e-10
-4.45684008027e-11
6.11287571526e-10
-4.85189807303e-11
6.32787951486e-10
-5.25754280397e-11
6.5591429578e-10
-5.67127300582e-11
6.80673584357e-10
-6.08947266223e-11
7.07053112605e-10
-6.50726947615e-11
7.35015473259e-10
-6.91842176562e-11
7.64493379998e-10
-7.31525796714e-11
7.9538462233e-10
-7.6886964081e-11
8.27547533723e-10
-8.02837278019e-11
8.60797428317e-10
-8.32289643987e-11
8.94904486047e-10
-8.56024250557e-11
9.29593517328e-10
-8.7282645387e-11
9.6454589355e-10
-8.81528534317e-11
9.99403694793e-10
-8.8106978935e-11
1.03377583515e-09
-8.70549506088e-11
1.06724566303e-09
-8.49265691805e-11
1.09937940405e-09
-8.16736410767e-11
1.1297349106e-09
-7.72706670632e-11
1.15787048233e-09
-7.17149261939e-11
1.18335386725e-09
-6.50269560677e-11
1.20577177016e-09
-5.72522042561e-11
1.22474034959e-09
-4.84644234216e-11
1.23991743339e-09
-3.87712442171e-11
1.2510171546e-09
-2.83211657812e-11
1.25782644769e-09
-1.73082031316e-11
1.26022041505e-09
-5.96814612487e-12
1.25817202403e-09
5.4371309527e-12
1.25175272292e-09
1.66443664568e-11
1.24112357594e-09
2.7414759223e-11
1.22651947609e-09
3.75529916128e-11
1.20823084284e-09
4.69143498578e-11
1.18658711635e-09
5.54001259312e-11
1.16194428482e-09
6.29465061923e-11
1.13467625549e-09
6.95132631496e-11
1.10516875183e-09
7.50757598671e-11
1.07381449139e-09
7.96207524519e-11
1.04100865953e-09
8.31454491718e-11
1.00714383634e-09
8.56591816715e-11
9.72603856454e-10
8.71865793792e-11
9.37756665693e-10
8.77706067872e-11
9.02946792407e-10
8.7473936493e-11
8.68488314612e-10
8.63778817591e-11
8.34659140549e-10
8.45789910349e-11
8.01697155789e-10
8.21840112201e-11
7.69798457982e-10
7.93041558674e-11
7.39117601836e-10
7.60495526796e-11
7.09769557503e-10
7.25245169384e-11
6.81832965364e-10
6.88240139502e-11
6.55354235969e-10
6.50314110399e-11
6.30352077584e-10
6.12174231222e-11
6.06822104275e-10
5.74400384902e-11
5.84741265521e-10
5.37451658843e-11
5.64071922656e-10
5.01677498878e-11
5.44765472195e-10
4.67331385413e-11
5.26765473171e-10
4.34585360959e-11
5.10010278469e-10
4.03544235873e-11
4.9443519706e-10
3.74258728439e-11
4.79974231265e-10
3.46737136689e-11
4.66561440194e-10
3.20955383827e-11
4.54131983273e-10
2.96865445936e-11
4.42622894942e-10
2.74402269953e-11
4.31973638206e-10
2.53489345401e-11
4.22126478499e-10
2.34043113482e-11
4.13026714311e-10
2.15976399603e-11
4.04622794535e-10
1.99201042889e-11
3.9686634796e-10
1.83629880442e-11
3.89712144731e-10
1.69178223424e-11
3.83118006125e-10
1.55764944378e-11
3.77044674542e-10
1.43313276662e-11
3.71455653154e-10
1.31751413483e-11
3.6631702118e-10
1.21012980881e-11
3.61597229146e-10
1.11037451341e-11
3.57266875705e-10
1.0177055726e-11
3.53298466686e-10
9.31647609659e-12
3.49666154899e-10
8.51798350372e-12
3.46345459121e-10
7.77836070566e-12
3.43312959682e-10
7.09529205753e-12
3.40545969714e-10
6.46748603074e-12
3.38022183139e-10
5.89482743459e-12
3.35719307173e-10
5.37855927015e-12
3.33614697731e-10
4.92148637658e-12
3.31685037267e-10
4.52817697728e-12
3.29906128792e-10
4.20510479962e-12
3.28252938173e-10
3.96060608328e-12
3.26700105145e-10
3.80438373534e-12
3.25223263327e-10
3.745991903e-12
3.23801602768e-10
3.79109030868e-12
3.22421768063e-10
3.93290632524e-12
3.21080657132e-10
4.13403411798e-12
4.29449132735e-12
9.64008591927e-10
1.2924355506e-10
9.87939566045e-10
2.67481849385e-10
9.9031116132e-10
3.16051096365e-10
9.73202244364e-10
3.15056621936e-10
9.43549700013e-10
2.91853523351e-10
9.07389742121e-10
2.60848456887e-10
8.68907559118e-10
2.28826578771e-10
8.30742167811e-10
1.98715440922e-10
7.9444349316e-10
1.71588966959e-10
7.60846236643e-10
1.47659479841e-10
7.30334568444e-10
1.26760164502e-10
7.03018913914e-10
1.0857728822e-10
6.7885040562e-10
9.27598071652e-11
6.57693422263e-10
7.89687604747e-11
6.39370712407e-10
6.68971996953e-11
6.23690888914e-10
5.62759432988e-11
6.10464727993e-10
4.68727971094e-11
5.99514438097e-10
3.8489045723e-11
5.90678567663e-10
3.09550775046e-11
5.83814248968e-10
2.41260186069e-11
5.78797849735e-10
1.78777525e-11
5.75524703953e-10
1.2103454197e-11
5.73908337853e-10
6.71065089969e-12
5.73879444431e-10
1.61877011103e-12
5.75384756459e-10
-3.24288166368e-12
5.78385894474e-10
-7.93675029232e-12
5.8285824466e-10
-1.25183629811e-11
5.88789873534e-10
-1.70373767633e-11
5.96180471653e-10
-2.15383683524e-11
6.05040308916e-10
-2.60613948151e-11
6.15389173066e-10
-3.06423372587e-11
6.27255254905e-10
-3.53130313046e-11
6.40673936142e-10
-4.01011807996e-11
6.55686429406e-10
-4.50300450978e-11
6.72338213345e-10
-5.01178860192e-11
6.90677200693e-10
-5.53771587814e-11
7.10751572922e-10
-6.08134332345e-11
7.32607214247e-10
-6.64240389886e-11
7.56284680674e-10
-7.21964429013e-11
7.81815650168e-10
-7.81063920649e-11
8.09218819477e-10
-8.41158926172e-11
8.38495246704e-10
-9.01711457191e-11
8.69623188242e-10
-9.62006267256e-11
9.02552548766e-10
-1.02113567068e-10
9.37199151937e-10
-1.07799170137e-10
9.73439145079e-10
-1.13126942844e-10
1.01110395934e-09
-1.17948525978e-10
1.04997633859e-09
-1.22101325813e-10
1.08978799245e-09
-1.25414059365e-10
1.13021938829e-09
-1.27714019981e-10
1.17090204203e-09
-1.28835484382e-10
1.21142339503e-09
-1.28628307765e-10
1.25133400612e-09
-1.26965536471e-10
1.2901564412e-09
-1.23748978323e-10
1.32739505084e-09
-1.18912224577e-10
1.36254593508e-09
-1.12421525489e-10
1.39510679843e-09
-1.04275764765e-10
1.42458684977e-09
-9.45069843668e-11
1.45051709813e-09
-8.31824322243e-11
1.47246149326e-09
-7.04088017018e-11
1.49002987214e-09
-5.63396107853e-11
1.50289417629e-09
-4.11854630214e-11
1.51080799636e-09
-2.52220224529e-11
1.5136257351e-09
-8.78589062988e-12
1.51131502288e-09
7.74783080273e-12
1.50395765716e-09
2.40017136327e-11
1.49173862844e-09
3.96337639062e-11
1.47492666335e-09
5.43649281244e-11
1.4538521373e-09
6.7988843689e-11
1.42888805904e-09
8.03641692071e-11
1.40043667835e-09
9.13978498485e-11
1.3689207511e-09
1.01029152067e-10
1.3347773618e-09
1.09219110149e-10
1.29845286543e-09
1.15945209755e-10
1.26039799513e-09
1.21200280854e-10
1.2210621817e-09
1.24994957382e-10
1.18088642612e-09
1.27362298435e-10
1.14029483504e-09
1.28362162783e-10
1.09968565712e-09
1.28083080903e-10
1.05942294853e-09
1.26640558509e-10
1.0198298541e-09
1.24172055348e-10
9.81184123748e-10
1.20829713232e-10
9.4371607423e-10
1.16772178833e-10
9.07608860247e-10
1.12156741914e-10
8.73000680657e-10
1.0713267354e-10
8.39988424877e-10
1.01836248465e-10
8.08632243099e-10
9.63875731826e-11
7.78960574141e-10
9.08890739961e-11
7.50975252244e-10
8.54253437339e-11
7.24656414713e-10
8.0063988097e-11
6.99967026027e-10
7.48571244634e-11
6.7685691374e-10
6.98432378341e-11
6.55266271892e-10
6.50491659509e-11
6.35128631624e-10
6.04920527889e-11
6.1637332667e-10
5.61811675587e-11
5.98927498782e-10
5.21195320891e-11
5.8271769578e-10
4.83053326083e-11
5.67671117725e-10
4.47331145229e-11
5.53716564484e-10
4.13947726941e-11
5.40785134502e-10
3.82803575351e-11
5.28810718813e-10
3.53787205473e-11
5.17730329176e-10
3.26780235844e-11
5.07484292972e-10
3.01661349056e-11
4.98016342681e-10
2.7830933156e-11
4.892736223e-10
2.56605379075e-11
4.81206629205e-10
2.36434830667e-11
4.73769105627e-10
2.17688470857e-11
4.66917891086e-10
2.00263520299e-11
4.60612743791e-10
1.8406441784e-11
4.54816137136e-10
1.69003484451e-11
4.49493034934e-10
1.55001548047e-11
4.44610647998e-10
1.4198860131e-11
4.40138173087e-10
1.29904557036e-11
4.36046515271e-10
1.18700160081e-11
4.3230799453e-10
1.08338104583e-11
4.28896039417e-10
9.87943898889e-12
4.25784873262e-10
9.00599160552e-12
4.2294920469e-10
8.2142260519e-12
4.20363943312e-10
7.50674615884e-12
4.18003976962e-10
6.88814196779e-12
4.15844068548e-10
6.36501211827e-12
4.13858960941e-10
5.94571293383e-12
4.12023810105e-10
5.63953421318e-12
4.10315074523e-10
5.45472760824e-12
4.08711860434e-10
5.39430496827e-12
4.07197072464e-10
5.44769504743e-12
4.05755364276e-10
5.57574300573e-12
5.68944233617e-12
9.5765224265e-10
1.09091308394e-10
9.82916716601e-10
2.42217366645e-10
9.95811518744e-10
3.03156285619e-10
9.93579561364e-10
3.17288570412e-10
9.79357641474e-10
3.06075433986e-10
9.5723981567e-10
2.82966273268e-10
9.30671323951e-10
2.55395061017e-10
9.02180237871e-10
2.27206517537e-10
8.73500798231e-10
2.00268397167e-10
8.45766511722e-10
1.75393756969e-10
8.19682198345e-10
1.52844468556e-10
7.9565696297e-10
1.32602514338e-10
7.73901172564e-10
1.14515588388e-10
7.54495120949e-10
9.83748029939e-11
7.37436775437e-10
8.39555362087e-11
7.22674538174e-10
7.10381716789e-11
7.10129459975e-10
5.9417866554e-11
6.99710114972e-10
4.89083821211e-11
6.91322411481e-10
3.93427725552e-11
6.84875933866e-10
3.05724879681e-11
6.8028792379e-10
2.24657545274e-11
6.77485666348e-10
1.49057038205e-11
6.76407806414e-10
7.78850326405e-12
6.77004952937e-10
1.02161629536e-12
6.79239811262e-10
-5.47774698217e-12
6.83086996879e-10
-1.17839425723e-11
6.88532653126e-10
-1.79640255333e-11
6.9557391928e-10
-2.40786488273e-11
7.04218283357e-10
-3.01827379146e-11
7.14482831621e-10
-3.63259480917e-11
7.26393389213e-10
-4.25528993527e-11
7.39983532856e-10
-4.89031788834e-11
7.55293444975e-10
-5.54110962406e-11
7.72368568855e-10
-6.2105171616e-11
7.91258015519e-10
-6.90073345782e-11
8.12012665768e-10
-7.61318100998e-11
8.3468290488e-10
-8.34836725179e-11
8.59315924735e-10
-9.10570580217e-11
8.85952529225e-10
-9.88330454936e-11
9.14623386958e-10
-1.06777246718e-10
9.45344692568e-10
-1.1483719388e-10
9.78113229334e-10
-1.22939676759e-10
1.01290087455e-09
-1.3098826475e-10
1.04964866057e-09
-1.38861344328e-10
1.08826059966e-09
-1.46411098802e-10
1.12859759855e-09
-1.53463929562e-10
1.17047191748e-09
-1.59822830926e-10
1.21364274623e-09
-1.65272138684e-10
1.25781353951e-09
-1.69584834868e-10
1.30263173122e-09
-1.72532192016e-10
1.34769128632e-09
-1.73895017991e-10
1.39253823263e-09
-1.73475230929e-10
1.43667886945e-09
-1.71106148766e-10
1.47958988309e-09
-1.66659966405e-10
1.52072930889e-09
-1.60051624278e-10
1.55954739953e-09
-1.51239590052e-10
1.59549703757e-09
-1.40225377429e-10
1.62804397807e-09
-1.27053900983e-10
1.65667734673e-09
-1.11815779416e-10
1.68092069639e-09
-9.46521333494e-11
1.70034479807e-09
-7.57636990284e-11
1.71458493842e-09
-5.54255955841e-11
1.72336412056e-09
-3.4001203342e-11
1.72651746574e-09
-1.19392416634e-11
1.72400843043e-09
1.02568531135e-11
1.71593011644e-09
3.20800079033e-11
1.70249137533e-09
5.30724795312e-11
1.68399237473e-09
7.28638986227e-11
1.66079757044e-09
9.11836144045e-11
1.63331397164e-09
1.07847731925e-10
1.6019776087e-09
1.22734175012e-10
1.56724572659e-09
1.35760995435e-10
1.52959131827e-09
1.46873479437e-10
1.48949845499e-09
1.56038034335e-10
1.44745764195e-09
1.63241056018e-10
1.40396003996e-09
1.68492522738e-10
1.35948962185e-09
1.71832681431e-10
1.31451343603e-09
1.73338315173e-10
1.26947115525e-09
1.73125329977e-10
1.22476539379e-09
1.71346290036e-10
1.1807539963e-09
1.68183424685e-10
1.1377449867e-09
1.63838696473e-10
1.09599435434e-09
1.58522786629e-10
1.05570645454e-09
1.52444618957e-10
1.01703654496e-09
1.45802562105e-10
9.80094866373e-10
1.38777907746e-10
9.4495167714e-10
1.31530744711e-10
9.11642727575e-10
1.2419800737e-10
8.80174771068e-10
1.16893285432e-10
8.50530826157e-10
1.09707919474e-10
8.22675007328e-10
1.02712930899e-10
7.96556826288e-10
9.59614075203e-11
7.72114926859e-10
8.94910549446e-11
7.49280259567e-10
8.33267104835e-11
7.27978728542e-10
7.74826897276e-11
7.08133359061e-10
7.19648933948e-11
6.89666040685e-10
6.67726434135e-11
6.72498902752e-10
6.19002454465e-11
6.56555376514e-10
5.73382924251e-11
6.41760994371e-10
5.3074733644e-11
6.28043971057e-10
4.90957382511e-11
6.15335606348e-10
4.53863830849e-11
6.03570542931e-10
4.1931193474e-11
5.9268690815e-10
3.87145634319e-11
5.82626363182e-10
3.57210786771e-11
5.73334079233e-10
3.29357631089e-11
5.64758656237e-10
3.0344266435e-11
5.56851996581e-10
2.79330082876e-11
5.49569143308e-10
2.5689291879e-11
5.428680902e-10
2.36013985869e-11
5.3670956898e-10
2.1658673247e-11
5.31056817691e-10
1.98516088277e-11
5.25875333066e-10
1.81719379003e-11
5.21132609566e-10
1.66127372463e-11
5.16797867718e-10
1.51685501978e-11
5.12841775854e-10
1.38355289044e-11
5.09236171404e-10
1.26115942618e-11
5.0595379208e-10
1.14966037548e-11
5.02968032903e-10
1.04925038958e-11
5.00252753349e-10
9.60342029875e-12
4.97782168198e-10
8.83559629682e-12
4.95530863551e-10
8.19701692711e-12
4.93473972825e-10
7.69642465867e-12
4.91587490053e-10
7.341210535e-12
4.89848479307e-10
7.1333162918e-12
4.88234274541e-10
7.06190057146e-12
4.86718248106e-10
7.09177013189e-12
7.14948718373e-12
9.53062372519e-10
9.35289311937e-11
9.76947615319e-10
2.18332114332e-10
9.9476086809e-10
2.85343023431e-10
1.00176632956e-09
3.10283099517e-10
9.98577818377e-10
3.09263935506e-10
9.87593678405e-10
2.93950403439e-10
9.71347108379e-10
2.71641621207e-10
9.5196344832e-10
2.46590167775e-10
9.31068278496e-10
2.21163557206e-10
9.09844373381e-10
1.96617652346e-10
8.89122502959e-10
1.73566329291e-10
8.69467461493e-10
1.52257546176e-10
8.51248950882e-10
1.32734089435e-10
8.34696677859e-10
1.14927066525e-10
8.19941934074e-10
9.87102705866e-11
8.07048434569e-10
8.39316618747e-11
7.96034919945e-10
7.043137198e-11
7.86891566634e-10
5.80517263618e-11
7.79591798767e-10
4.66425314969e-11
7.74100713483e-10
3.60635644899e-11
7.70381027437e-10
2.61854319914e-11
7.68397217484e-10
1.68895053923e-11
7.68118350325e-10
8.06736226488e-12
7.69519962346e-10
-3.80003640984e-13
7.72585243588e-10
-8.54303587121e-12
7.77305717258e-10
-1.65044235948e-11
7.83681557727e-10
-2.43398730325e-11
7.91721616384e-10
-3.21187141595e-11
8.01443217007e-10
-3.99043448233e-11
8.128717521e-10
-4.77544890413e-11
8.26040091808e-10
-5.57212444434e-11
8.40987800711e-10
-6.38508926459e-11
8.57760143905e-10
-7.2183443714e-11
8.76406851773e-10
-8.07518831204e-11
8.96980602101e-10
-8.95810878285e-11
9.19535168861e-10
-9.86863789914e-11
9.44123179126e-10
-1.08071684036e-10
9.7079341423e-10
-1.17727293409e-10
9.99587589575e-10
-1.27627220054e-10
1.03053655185e-09
-1.37726207043e-10
1.06365584579e-09
-1.47956484585e-10
1.09894062955e-09
-1.58224455907e-10
1.13635996386e-09
-1.68407592961e-10
1.17585057101e-09
-1.78351943776e-10
1.21731026087e-09
-1.87870779281e-10
1.26059135337e-09
-1.96745010876e-10
1.30549458068e-09