/*--------------------------------*- C++ -*----------------------------------*\
  =========                 |
  \\      /  F ield         | OpenFOAM: The Open Source CFD Toolbox
   \\    /   O peration     | Website:  https://openfoam.org
    \\  /    A nd           | Version:  7
     \\/     M anipulation  |
\*---------------------------------------------------------------------------*/
FoamFile
{
    version     2.0;
    format      ascii;
    class       volVectorField;
    location    "480";
    object      U;
}
// * * * * * * * * * * * * * * * * * * * * * * * * * * * * * * * * * * * * * //

dimensions      [0 1 -1 0 0 0 0];

internalField   nonuniform List<vector> 
8192
(
(0.00104344401269 0.000156555987314 0)
(0.000759270837996 0.000127617185626 0)
(0.000549254878775 8.23987700367e-05 0)
(0.000414019313875 5.28367911889e-05 0)
(0.000326259575675 3.49229431192e-05 0)
(0.000267319612999 2.40170154038e-05 0)
(0.000226128346703 1.71742465971e-05 0)
(0.000196243338932 1.27107568411e-05 0)
(0.0001738529999 9.67957788459e-06 0)
(0.000156632231126 7.5411866553e-06 0)
(0.000143110967209 5.98007312784e-06 0)
(0.000132325176712 4.80571335411e-06 0)
(0.000123620408144 3.8990513337e-06 0)
(0.000116538239638 3.18311344063e-06 0)
(0.000110748632703 2.60648992599e-06 0)
(0.000106008348133 2.13379125488e-06 0)
(0.000102134582126 1.7399715611e-06 0)
(9.89877553961e-05 1.40685219645e-06 0)
(9.64599690653e-05 1.120931404e-06 0)
(9.44670685356e-05 8.71966663313e-07 0)
(9.29430659943e-05 6.52033710482e-07 0)
(9.1836143227e-05 4.54887214705e-07 0)
(9.11057375922e-05 2.75516934465e-07 0)
(9.07203860849e-05 1.09833478119e-07 0)
(9.06561100983e-05 -4.55581602951e-08 0)
(9.0895191991e-05 -1.93523936685e-07 0)
(9.14252387967e-05 -3.36522569803e-07 0)
(9.22384596484e-05 -4.76697436571e-07 0)
(9.33311038507e-05 -6.15945331509e-07 0)
(9.4703017989e-05 -7.55966737063e-07 0)
(9.63572888518e-05 -8.98301374224e-07 0)
(9.82999447919e-05 -1.04435108247e-06 0)
(0.000100539691199 -1.19539105957e-06 0)
(0.000103087656909 -1.35256955205e-06 0)
(0.000105957127994 -1.51689554975e-06 0)
(0.0001091632439 -1.6892134338e-06 0)
(0.000112722628604 -1.87016336031e-06 0)
(0.000116652926931 -2.06012601568e-06 0)
(0.000120972213894 -2.25915091263e-06 0)
(0.000125698244203 -2.46686823063e-06 0)
(0.000130847510893 -2.68238613048e-06 0)
(0.000136434088601 -2.90417805086e-06 0)
(0.000142468249835 -3.1299684413e-06 0)
(0.000148954864067 -3.35662981849e-06 0)
(0.000155891620143 -3.5801090553e-06 0)
(0.000163267152072 -3.79540445251e-06 0)
(0.000171059192544 -3.99661640358e-06 0)
(0.000179232920065 -4.1770903476e-06 0)
(0.00018773969258 -4.32966030742e-06 0)
(0.000196516359066 -4.44698331453e-06 0)
(0.000205485298895 -4.5219327693e-06 0)
(0.0002145552533 -4.54799716846e-06 0)
(0.000223622895373 -4.51961992769e-06 0)
(0.000232574965166 -4.4324246368e-06 0)
(0.000241290718277 -4.2833033132e-06 0)
(0.000249644439721 -4.07039340207e-06 0)
(0.000257507869644 -3.793012648e-06 0)
(0.00026475254339 -3.4516385503e-06 0)
(0.000271252217603 -3.0480149649e-06 0)
(0.000276885707924 -2.58545707236e-06 0)
(0.00028154056888 -2.06938861127e-06 0)
(0.000285117979289 -1.50801012114e-06 0)
(0.000287538763479 -9.12766527706e-07 0)
(0.000288749684079 -2.98151091237e-07 0)
(0.000288728418427 3.19414890417e-07 0)
(0.000287485584982 9.23411794516e-07 0)
(0.000285063008112 1.4991535327e-06 0)
(0.000281528646207 2.03519235249e-06 0)
(0.000276969648433 2.52378535304e-06 0)
(0.000271485395194 2.96044426042e-06 0)
(0.000265181953686 3.34297058407e-06 0)
(0.000258168483929 3.67046999288e-06 0)
(0.000250555329345 3.94265341581e-06 0)
(0.000242453146671 4.15949659882e-06 0)
(0.000233972407835 4.32120858845e-06 0)
(0.000225222737735 4.42842733361e-06 0)
(0.000216311741885 4.48253423359e-06 0)
(0.00020734321822 4.48595541011e-06 0)
(0.000198414899059 4.44233030352e-06 0)
(0.000189616050712 4.35648541976e-06 0)
(0.000181025313628 4.23422006805e-06 0)
(0.000172709101555 4.08196159393e-06 0)
(0.000164720744201 3.90636665656e-06 0)
(0.000157100410463 3.71393937545e-06 0)
(0.000149875728393 3.51071644882e-06 0)
(0.000143062941922 3.30204526729e-06 0)
(0.000136668414298 3.0924591013e-06 0)
(0.000130690294978 2.88563844846e-06 0)
(0.000125120197158 2.68443905141e-06 0)
(0.00011994477406 2.49096512618e-06 0)
(0.000115147123488 2.30666786505e-06 0)
(0.000110707985788 2.13245352508e-06 0)
(0.000106606727451 1.968789702e-06 0)
(0.000102822120898 1.8158028667e-06 0)
(9.93329417552e-05 1.67336334697e-06 0)
(9.6118409834e-05 1.54115662958e-06 0)
(9.31585010006e-05 1.41874117839e-06 0)
(9.04341555291e-05 1.30559412365e-06 0)
(8.79274056825e-05 1.20114635076e-06 0)
(8.56214418302e-05 1.1048088705e-06 0)
(8.35006329896e-05 1.01599202834e-06 0)
(8.1550514484e-05 9.34119174796e-07 0)
(7.97577526349e-05 8.58635964859e-07 0)
(7.81100940309e-05 7.8901647805e-07 0)
(7.65963049803e-05 7.24766918357e-07 0)
(7.52061051517e-05 6.65427723191e-07 0)
(7.39300981289e-05 6.10574542473e-07 0)
(7.27597005404e-05 5.59818683597e-07 0)
(7.16870705381e-05 5.12807317888e-07 0)
(7.07050356059e-05 4.69223944339e-07 0)
(6.98070189183e-05 4.28789375518e-07 0)
(6.89869626642e-05 3.91263786516e-07 0)
(6.82392458084e-05 3.56450228994e-07 0)
(6.75585925578e-05 3.24200410991e-07 0)
(6.69399661667e-05 2.94423579893e-07 0)
(6.63784403646e-05 2.67100015407e-07 0)
(6.58690372101e-05 2.42301111489e-07 0)
(6.54065148108e-05 2.20219428453e-07 0)
(6.49850798536e-05 2.01213830872e-07 0)
(6.45979860396e-05 1.85878444626e-07 0)
(6.42369564578e-05 1.75149762336e-07 0)
(6.38913292197e-05 1.70476275241e-07 0)
(6.35467622121e-05 1.74089722549e-07 0)
(6.31832397103e-05 1.89431977112e-07 0)
(6.27720412191e-05 2.21765930197e-07 0)
(6.22716058067e-05 2.78669119854e-07 0)
(6.16244906559e-05 3.68445985505e-07 0)
(6.07832417163e-05 4.72803208952e-07 0)
(0.0012101544084 0.000302957564749 0)
(0.00116028343108 0.000315259753419 0)
(0.00102696940469 0.000238086177012 0)
(0.000887709417548 0.000171644924837 0)
(0.000767324417145 0.000124259535906 0)
(0.000669280775822 9.1664013823e-05 0)
(0.000590864984623 6.9134292595e-05 0)
(0.000528242850068 5.32578400607e-05 0)
(0.000477970959857 4.17947109244e-05 0)
(0.000437309437559 3.33083319371e-05 0)
(0.000404169508611 2.68741082615e-05 0)
(0.000376979185997 2.18877792353e-05 0)
(0.000354554731426 1.79461968931e-05 0)
(0.000335998649062 1.47742074927e-05 0)
(0.000320624004676 1.21796364209e-05 0)
(0.000307899703958 1.00252198101e-05 0)
(0.000297411204467 8.21079885863e-06 0)
(0.000288832242871 6.66180423483e-06 0)
(0.000281904342154 5.32165814903e-06 0)
(0.000276421814276 4.14666086233e-06 0)
(0.000272220667214 3.10248253076e-06 0)
(0.000269170310781 2.16171197942e-06 0)
(0.000267167289768 1.30211426017e-06 0)
(0.000266130501835 5.05372192371e-07 0)
(0.000265997514348 -2.43835543562e-07 0)
(0.000266721701605 -9.58516479481e-07 0)
(0.000268269998221 -1.64987274634e-06 0)
(0.000270621118716 -2.32768630632e-06 0)
(0.000273764128992 -3.00060692034e-06 0)
(0.00027769727771 -3.67636213414e-06 0)
(0.000282427012236 -4.36190351387e-06 0)
(0.000287967114619 -5.06349729213e-06 0)
(0.00029433789892 -5.7867633251e-06 0)
(0.000301565413578 -6.53666301686e-06 0)
(0.000309680592052 -7.31743445909e-06 0)
(0.00031871829281 -8.13247130655e-06 0)
(0.000328716166476 -8.98414114345e-06 0)
(0.000339713285105 -9.87353949825e-06 0)
(0.000351748467388 -1.08001778861e-05 0)
(0.000364858236644 -1.176160881e-05 0)
(0.000379074358129 -1.27529983935e-05 0)
(0.000394420922009 -1.37666686326e-05 0)
(0.000410910971479 -1.47916463513e-05 0)
(0.000428542724704 -1.58132736403e-05 0)
(0.000447295505043 -1.68129524042e-05 0)
(0.000467125573417 -1.77681086666e-05 0)
(0.000487962140766 -1.86524638441e-05 0)
(0.000509703912076 -1.94366822643e-05 0)
(0.000532216554561 -2.0089420804e-05 0)
(0.000555331467624 -2.05787369479e-05 0)
(0.000578846142285 -2.08737257733e-05 0)
(0.000602526230428 -2.09461769521e-05 0)
(0.000626109223325 -2.07720041365e-05 0)
(0.000649309420022 -2.03322355676e-05 0)
(0.000671823725971 -1.96134807396e-05 0)
(0.00069333782901 -1.86079715752e-05 0)
(0.000713532468977 -1.73134386405e-05 0)
(0.000732089791094 -1.57331473351e-05 0)
(0.000748700056725 -1.38763911955e-05 0)
(0.000763069214675 -1.17596822459e-05 0)
(0.000774927957368 -9.40872991242e-06 0)
(0.000784042713759 -6.86080975831e-06 0)
(0.00079022826084 -4.16628499489e-06 0)
(0.000793360281533 -1.38757441942e-06 0)
(0.000793384998831 1.40537194064e-06 0)
(0.000790323004784 4.14225360677e-06 0)
(0.000784265877939 6.75997349254e-06 0)
(0.000775366371451 9.20818666166e-06 0)
(0.000763824798083 1.14512972925e-05 0)
(0.000749874951403 1.3466958112e-05 0)
(0.000733772212763 1.524255508e-05 0)
(0.000715784957519 1.67715225725e-05 0)
(0.000696188960737 1.80506596684e-05 0)
(0.000675263788495 1.90787495782e-05 0)
(0.000653290051202 1.98563342814e-05 0)
(0.000630546566277 2.03863586855e-05 0)
(0.00060730678643 2.06752811865e-05 0)
(0.000583834278431 2.0734144246e-05 0)
(0.000560377499195 2.057914627e-05 0)
(0.000537164455282 2.02314709946e-05 0)
(0.000514397945965 1.97163935181e-05 0)
(0.000492251987253 1.906187525e-05 0)
(0.000470869779206 1.82969386814e-05 0)
(0.000450363309032 1.74500956762e-05 0)
(0.00043081445047 1.65480294345e-05 0)
(0.000412277263366 1.56146387787e-05 0)
(0.000394781124097 1.46704696394e-05 0)
(0.000378334315096 1.37324975326e-05 0)
(0.000362927748506 1.28141896907e-05 0)
(0.000348538571423 1.19257638207e-05 0)
(0.000335133479104 1.10745648653e-05 0)
(0.000322671634565 1.02654950107e-05 0)
(0.000311107151605 9.50144899687e-06 0)
(0.00030039114103 8.78372321062e-06 0)
(0.000290473348064 8.11238045089e-06 0)
(0.000281303424941 7.48656254552e-06 0)
(0.000272831889679 6.90474978932e-06 0)
(0.00026501082282 6.3649705615e-06 0)
(0.000257794350799 5.86496662475e-06 0)
(0.00025113895944 5.40232062987e-06 0)
(0.000245003674943 4.97455226498e-06 0)
(0.000239350143602 4.5791891459e-06 0)
(0.000234142635651 4.21381773441e-06 0)
(0.000229347993447 3.8761189165e-06 0)
(0.000224935539701 3.56389202551e-06 0)
(0.000220876957588 3.27507054813e-06 0)
(0.000217146151361 3.00773210164e-06 0)
(0.000213719093306 2.76010495132e-06 0)
(0.000210573660567 2.53057293541e-06 0)
(0.000207689463259 2.3176805927e-06 0)
(0.000205047663358 2.12014014572e-06 0)
(0.000202630782001 1.93684219279e-06 0)
(0.000200422490785 1.76687213454e-06 0)
(0.000198407380462 1.60953493812e-06 0)
(0.000196570697827 1.46439150828e-06 0)
(0.000194898038496 1.33131118057e-06 0)
(0.000193374979594 1.21054646423e-06 0)
(0.000191986632252 1.10283875874e-06 0)
(0.000190717089848 1.00956727881e-06 0)
(0.000189548746087 9.32958474196e-07 0)
(0.000188461462742 8.76379074677e-07 0)
(0.000187431594117 8.44739804539e-07 0)
(0.000186430959806 8.45025123886e-07 0)
(0.000185426089737 8.86887480911e-07 0)
(0.000184378683119 9.82914688811e-07 0)
(0.000183249773987 1.14686484464e-06 0)
(0.000182014741071 1.38239886763e-06 0)
(0.000180694226059 1.62061509281e-06 0)
(0.0012247777182 0.000268025434859 0)
(0.001241100387 0.000383740180785 0)
(0.00119629168407 0.000347728463176 0)
(0.00111371496529 0.000283839328165 0)
(0.00102099515741 0.000225169923664 0)
(0.000931828056665 0.000177964350321 0)
(0.000851635184322 0.000141442601577 0)
(0.00078180125634 0.00011340557557 0)
(0.000721949431741 9.17706723631e-05 0)
(0.000671047781624 7.48955253449e-05 0)
(0.000627913581788 6.15610264375e-05 0)
(0.000591424639346 5.08801093464e-05 0)
(0.000560594115701 4.22088287131e-05 0)
(0.000534584943456 3.5076814534e-05 0)
(0.000512699761223 2.91368408461e-05 0)
(0.000494362754158 2.41293086783e-05 0)
(0.000479100490863 1.98574590198e-05 0)
(0.000466524526215 1.61700573772e-05 0)
(0.000456316599173 1.29492207266e-05 0)
(0.000448216434263 1.01017800288e-05 0)
(0.000442011849771 7.55308496888e-06 0)
(0.00043753079772 5.24250927927e-06 0)
(0.000434634976123 3.12015213732e-06 0)
(0.000433214701772 1.14439060008e-06 0)
(0.000433184785329 -7.19954462813e-07 0)
(0.000434481197581 -2.50299982184e-06 0)
(0.000437058357101 -4.23084646563e-06 0)
(0.000440886904691 -5.92637962502e-06 0)
(0.000445951851675 -7.60986769514e-06 0)
(0.000452251004755 -9.29939770999e-06 0)
(0.000459793583435 -1.10111732571e-05 0)
(0.000468598953634 -1.27596896316e-05 0)
(0.000478695404735 -1.4557793108e-05 0)
(0.000490118898089 -1.64166250052e-05 0)
(0.00050291171334 -1.83454468201e-05 0)
(0.000517120916035 -2.03513397016e-05 0)
(0.000532796566626 -2.24387708171e-05 0)
(0.000549989588994 -2.46090209649e-05 0)
(0.000568749217667 -2.68594736917e-05 0)
(0.000589119949994 -2.91827769233e-05 0)
(0.000611137945604 -3.15659055991e-05 0)
(0.000634826844605 -3.39891783053e-05 0)
(0.00066019302158 -3.64253128094e-05 0)
(0.000687220357504 -3.88386416392e-05 0)
(0.000715864696235 -4.1184644385e-05 0)
(0.000746048252205 -4.34099775511e-05 0)
(0.000777654340106 -4.5453182418e-05 0)
(0.00081052288721 -4.72462101341e-05 0)
(0.000844447237855 -4.87168101524e-05 0)
(0.000879172738902 -4.97916822076e-05 0)
(0.000914397481134 -5.04001148296e-05 0)
(0.000949775360712 -5.04776706492e-05 0)
(0.000984921344258 -4.99694004246e-05 0)
(0.0010194185384 -4.88321432842e-05 0)
(0.00105282647664 -4.70357313213e-05 0)
(0.00108469003433 -4.45632983344e-05 0)
(0.00111454859103 -4.14112294108e-05 0)
(0.00114194539484 -3.75894095541e-05 0)
(0.00116643740731 -3.31223424414e-05 0)
(0.0011876061487 -2.80515762434e-05 0)
(0.00120507022332 -2.24396118649e-05 0)
(0.00121850009423 -1.63745285382e-05 0)
(0.0012276348124 -9.97282133823e-06 0)
(0.00123229864024 -3.37689403032e-06 0)
(0.00123241383068 3.25475849247e-06 0)
(0.00122800575347 9.76289547515e-06 0)
(0.00121919852549 1.60036272154e-05 0)
(0.00120620218743 2.18603035082e-05 0)
(0.00118929486289 2.72479915578e-05 0)
(0.00116880424338 3.2110632479e-05 0)
(0.00114509179564 3.6413960793e-05 0)
(0.0011185410269 4.01380277864e-05 0)
(0.0010895493438 4.3271716426e-05 0)
(0.00105852225365 4.58098342944e-05 0)
(0.00102586861118 4.775250708e-05 0)
(0.000991995813279 4.91063466545e-05 0)
(0.000957304169936 4.98865958424e-05 0)
(0.000922180190073 5.01191994482e-05 0)
(0.000886989105973 4.98418398082e-05 0)
(0.000852067390373 4.91034264278e-05 0)
(0.000817716154267 4.79620775098e-05 0)
(0.000784196172531 4.64820306096e-05 0)
(0.000751724983945 4.47300840162e-05 0)
(0.000720476174126 4.27721397046e-05 0)
(0.000690580660947 4.06702718946e-05 0)
(0.000662129605729 3.84805587432e-05 0)
(0.000635178479079 3.62517409565e-05 0)
(0.000609751803143 3.40246416137e-05 0)
(0.000585848146234 3.18322044644e-05 0)
(0.000563445033136 2.96999792321e-05 0)
(0.000542503531483 2.76468878173e-05 0)
(0.000522972365202 2.56861313817e-05 0)
(0.000504791481311 2.38261318244e-05 0)
(0.000487895053236 2.20714349598e-05 0)
(0.000472213943016 2.04235311442e-05 0)
(0.000457677668839 1.88815715052e-05 0)
(0.000444215936832 1.74429733264e-05 0)
(0.000431759800118 1.61039184976e-05 0)
(0.00042024250668 1.48597545292e-05 0)
(0.000409600092804 1.37053106468e-05 0)
(0.00039977177237 1.26351420047e-05 0)
(0.000390700165101 1.1643714824e-05 0)
(0.000382331399858 1.07255438951e-05 0)
(0.000374615122453 9.87529270824e-06 0)
(0.000367504431548 9.08784479516e-06 0)
(0.000360955761045 8.35835375033e-06 0)
(0.000354928722842 7.68227801363e-06 0)
(0.000349385920061 7.05540577958e-06 0)
(0.000344292737456 6.47387447297e-06 0)
(0.000339617112883 5.93418898458e-06 0)
(0.000335329291102 5.43324242069e-06 0)
(0.000331401558861 4.96834336117e-06 0)
(0.000327807957989 4.53725368884e-06 0)
(0.000324523971235 4.13824182356e-06 0)
(0.00032152617371 3.77015682204e-06 0)
(0.000318791841449 3.43253013209e-06 0)
(0.000316298508273 3.12571287103e-06 0)
(0.000314023463957 2.85105788074e-06 0)
(0.000311943193195 2.61115579249e-06 0)
(0.000310032770463 2.41013154809e-06 0)
(0.00030826525984 2.25399573935e-06 0)
(0.000306611238135 2.15100999176e-06 0)
(0.000305038696576 2.11192817474e-06 0)
(0.000303513837814 2.14971159636e-06 0)
(0.000302003750956 2.2775835806e-06 0)
(0.000300482695591 2.50216115989e-06 0)
(0.000298943409177 2.80142327678e-06 0)
(0.00029740561872 3.05989749875e-06 0)
(0.00122194247898 0.000221305233966 0)
(0.00125347835393 0.000382601825378 0)
(0.00125132227352 0.000395831584182 0)
(0.00121391745033 0.000355717731053 0)
(0.00115628679731 0.000303641962948 0)
(0.00109082819291 0.000254117996863 0)
(0.00102500702622 0.000211302974508 0)
(0.000962775607542 0.000175610529735 0)
(0.000905951798899 0.000146241332005 0)
(0.000855150086952 0.000122128208556 0)
(0.000810346576632 0.000102266034456 0)
(0.000771205107323 8.5805494487e-05 0)
(0.0007372589365 7.20601198281e-05 0)
(0.000708008351216 6.04852631595e-05 0)
(0.000682970535269 5.06513730882e-05 0)
(0.000661702900048 4.2219401943e-05 0)
(0.00064381202899 3.4920483921e-05 0)
(0.000628955096607 2.85399139841e-05 0)
(0.000616837581692 2.29047912896e-05 0)
(0.000607209363689 1.78745784055e-05 0)
(0.000599860314989 1.33339067086e-05 0)
(0.000594615956305 9.18708618555e-06 0)
(0.000591333440951 5.35390117207e-06 0)
(0.000589897970199 1.76637683675e-06 0)
(0.000590219655402 -1.63371801058e-06 0)
(0.000592230795475 -4.89679575938e-06 0)
(0.000595883521147 -8.0669413769e-06 0)
(0.000601147751421 -1.11830666073e-05 0)
(0.000608009398029 -1.42797765832e-05 0)
(0.000616468752767 -1.73879970308e-05 0)
(0.000626538993955 -2.05353921713e-05 0)
(0.000638244746611 -2.37465897635e-05 0)
(0.000651620628361 -2.70432196923e-05 0)
(0.000666709709544 -3.04437643354e-05 0)
(0.000683561811467 -3.39632133886e-05 0)
(0.000702231562007 -3.76125122677e-05 0)
(0.000722776123676 -4.13977934147e-05 0)
(0.000745252507207 -4.5319383996e-05 0)
(0.000769714385871 -4.93705943857e-05 0)
(0.000796208334728 -5.35363102893e-05 0)
(0.00082476943825 -5.77914405733e-05 0)
(0.000855416243287 -6.20993127619e-05 0)
(0.000888145086056 -6.64101595467e-05 0)
(0.000922923894953 -7.06598971173e-05 0)
(0.000959685666084 -7.47694520257e-05 0)
(0.00099832192149 -7.86449303488e-05 0)
(0.00103867657987 -8.21789207708e-05 0)
(0.00108054077571 -8.52531554326e-05 0)
(0.00112364922519 -8.77426016915e-05 0)
(0.00116767872216 -8.95208216219e-05 0)
(0.00121224922296 -9.04661480219e-05 0)
(0.00125692773654 -9.0467957384e-05 0)
(0.00130123489916 -8.94321846054e-05 0)
(0.00134465375884 -8.72853366289e-05 0)
(0.00138664004293 -8.39766841839e-05 0)
(0.00142663316137 -7.94789470817e-05 0)
(0.00146406745147 -7.37883561825e-05 0)
(0.00149838358373 -6.69251526527e-05 0)
(0.00152904040794 -5.89353769347e-05 0)
(0.00155552775664 -4.98945820597e-05 0)
(0.0015773809811 -3.99138668627e-05 0)
(0.00159419813632 -2.9147275001e-05 0)
(0.00160565990547 -1.77965528753e-05 0)
(0.00161154999216 -6.10708422205e-06 0)
(0.00161177116102 5.64856525197e-06 0)
(0.00160635183805 1.71964481952e-05 0)
(0.00159544083127 2.82882531582e-05 0)
(0.0015792915533 3.87212238312e-05 0)
(0.00155824020411 4.83456635274e-05 0)
(0.00153268349388 5.70601992234e-05 0)
(0.00150306009675 6.48001402601e-05 0)
(0.0014698371458 7.15254636226e-05 0)
(0.00143350080468 7.72121964884e-05 0)
(0.00139454927566 8.18478628843e-05 0)
(0.00135348681659 8.54304688569e-05 0)
(0.00131081759736 8.79702915724e-05 0)
(0.00126703852339 8.94932596921e-05 0)
(0.00122263073417 9.00441989562e-05 0)
(0.00117805021318 8.96883431973e-05 0)
(0.00113371846849 8.85102851787e-05 0)
(0.0010900143713 8.66104583221e-05 0)
(0.00104726802966 8.40998841344e-05 0)
(0.00100575719281 8.10941717465e-05 0)
(0.000965706278283 7.77076971188e-05 0)
(0.000927287781977 7.40486497496e-05 0)
(0.000890625614635 7.02153341599e-05 0)
(0.000855799808853 6.62938334839e-05 0)
(0.000822852040674 6.23569333277e-05 0)
(0.00079179147639 5.84640784589e-05 0)
(0.00076260055667 5.46620867035e-05 0)
(0.000735240440433 5.09863507453e-05 0)
(0.000709655932705 4.74622985625e-05 0)
(0.000685779805034 4.4106935631e-05 0)
(0.00066353648105 4.09303457117e-05 0)
(0.000642845104339 3.79370726604e-05 0)
(0.000623622034128 3.51273423374e-05 0)
(0.000605782829734 3.24981092804e-05 0)
(0.000589243791019 3.00439305997e-05 0)
(0.000573923122058 2.77576795322e-05 0)
(0.000559741781214 2.56311169931e-05 0)
(0.000546624074691 2.36553410309e-05 0)
(0.000534498043398 2.18211344275e-05 0)
(0.000523295685662 2.01192288705e-05 0)
(0.000512953051197 1.85405026181e-05 0)
(0.000503410235322 1.70761259872e-05 0)
(0.000494611296548 1.57176673656e-05 0)
(0.000486504115627 1.44571701608e-05 0)
(0.000479040209726 1.32872099747e-05 0)
(0.000472174511574 1.22009396318e-05 0)
(0.000465865120209 1.11921292221e-05 0)
(0.000460073027104 1.02552073151e-05 0)
(0.00045476181913 9.38530965671e-06 0)
(0.000449897357814 8.57834122567e-06 0)
(0.000445447432973 7.83105814806e-06 0)
(0.000441381388034 7.14117581048e-06 0)
(0.000437669714813 6.5075100266e-06 0)
(0.000434283617826 5.93015707642e-06 0)
(0.000431194553799 5.41071648334e-06 0)
(0.000428373763139 4.95255362556e-06 0)
(0.000425791830399 4.56108478398e-06 0)
(0.000423418346278 4.24403349876e-06 0)
(0.000421221802858 4.01153435576e-06 0)
(0.000419169947724 3.87579836402e-06 0)
(0.000417230955822 3.84969091048e-06 0)
(0.000415375914301 3.94273261954e-06 0)
(0.000413582957332 4.15102548325e-06 0)
(0.000411841552125 4.43325223016e-06 0)
(0.000410146852619 4.6605600644e-06 0)
(0.00121696549883 0.00018239725178 0)
(0.0012492468211 0.000357692595994 0)
(0.00126608046551 0.000406063229655 0)
(0.00125664857964 0.000392322774576 0)
(0.0012267212444 0.000354594887015 0)
(0.00118460124297 0.00031074365737 0)
(0.00113683027279 0.000268269429342 0)
(0.00108777582523 0.000229929919575 0)
(0.00104011882302 0.000196402731535 0)
(0.000995385427074 0.000167501895591 0)
(0.000954355715255 0.000142725548433 0)
(0.000917346228709 0.000121496915483 0)
(0.000884396364501 0.00010326471326 0)
(0.000855388049845 8.75395493814e-05 0)
(0.000830121046188 7.3901886542e-05 0)
(0.000808359424845 6.19981255312e-05 0)
(0.000789859594821 5.15324423487e-05 0)
(0.000774386666298 4.2257797908e-05 0)
(0.000761723523686 3.3967546911e-05 0)
(0.000751675402644 2.64881444841e-05 0)
(0.00074407174317 1.967303216e-05 0)
(0.000738766434361 1.33976123571e-05 0)
(0.000735637146756 7.55516293626e-06 0)
(0.000734584180662 2.05353782199e-06 0)
(0.00073552908857 -3.1874851958e-06 0)
(0.000738413216597 -8.23830866743e-06 0)
(0.000743196249046 -1.31611973957e-05 0)
(0.000749854795644 -1.80115969805e-05 0)
(0.00075838102092 -2.28391262224e-05 0)
(0.000768781299564 -2.76882873996e-05 0)
(0.000781074868468 -3.25989168995e-05 0)
(0.000795292433902 -3.76063863765e-05 0)
(0.00081147468227 -4.27415545615e-05 0)
(0.000829670633951 -4.80304616576e-05 0)
(0.000849935771361 -5.34937525302e-05 0)
(0.000872329864984 -5.9145812059e-05 0)
(0.000896914415114 -6.49935976509e-05 0)
(0.000923749623788 -7.10351614664e-05 0)
(0.000952890812749 -7.72578711242e-05 0)
(0.000984384211739 -8.36363648669e-05 0)
(0.00101826206057 -9.01303185122e-05 0)
(0.00105453700236 -9.66821582985e-05 0)
(0.00109319579837 -0.000103214925752 0)
(0.00113419247169 -0.000109630582223 0)
(0.00117744108845 -0.000115809119878 0)
(0.00122280851009 -0.000121608900432 0)
(0.00127010758683 -0.000126868642419 0)
(0.00131909139067 -0.000131411385735 0)
(0.00136944917186 -0.00013505055003 0)
(0.00142080472367 -0.000137597865835 0)
(0.0014727177154 -0.000138872536201 0)
(0.00152468827972 -0.000138710583488 0)
(0.00157616473674 -0.000136973111731 0)
(0.00162655388629 -0.000133552350402 0)
(0.00167523295491 -0.000128374954019 0)
(0.00172156223099 -0.000121403003233 0)
(0.00176489774945 -0.000112634042214 0)
(0.00180460393485 -0.000102101721878 0)
(0.00184006652665 -8.98781673475e-05 0)
(0.00187070629849 -7.60788640789e-05 0)
(0.00189599447385 -6.08709472015e-05 0)
(0.00191547139099 -4.44842424337e-05 0)
(0.0019287693905 -2.72193443741e-05 0)
(0.00193563758814 -9.44258352304e-06 0)
(0.00193596208511 8.43837552348e-06 0)
(0.00192977451523 2.60134912572e-05 0)
(0.00191724562279 4.29110548027e-05 0)
(0.00189866578675 5.88274686318e-05 0)
(0.00187441843242 7.353804387e-05 0)
(0.00184495372566 8.68891488885e-05 0)
(0.00181076783193 9.87803878661e-05 0)
(0.00177238875485 0.000109147145739 0)
(0.00173036679225 0.00011794871681 0)
(0.00168526734543 0.000125162215813 0)
(0.00163766455076 0.000130781267216 0)
(0.00158813451317 0.000134818648994 0)
(0.001537247109 0.000137311281801 0)
(0.00148555600714 0.000138324972525 0)
(0.00143358751498 0.000137956491133 0)
(0.00138182950762 0.000136331801772 0)
(0.00133072179368 0.000133600669685 0)
(0.00128064894582 0.000129928783649 0)
(0.00123193612671 0.000125488854208 0)
(0.00118484795807 0.00012045202854 0)
(0.00113959010618 0.000114980601906 0)
(0.00109631302754 0.000109222567945 0)
(0.0010551172275 0.000103308149902 0)
(0.00101605940303 9.73481581557e-05 0)
(0.000979158928887 9.14338446234e-05 0)
(0.000944404266852 8.5637858548e-05 0)
(0.000911759002073 8.00159195848e-05 0)
(0.000881167321451 7.46088808803e-05 0)
(0.000852558838805 6.944492931e-05 0)
(0.00082585273825 6.45417448807e-05 0)
(0.000800961253308 5.99085058577e-05 0)
(0.000777792528289 5.55476772852e-05 0)
(0.00075625292452 5.14565574343e-05 0)
(0.000736248840643 4.76285818346e-05 0)
(0.000717688116613 4.40543998012e-05 0)
(0.000700481087351 4.07227469281e-05 0)
(0.000684541346122 3.76211404131e-05 0)
(0.000669786270713 3.47364246686e-05 0)
(0.000656137358175 3.20551930845e-05 0)
(0.000643520406818 2.95641095682e-05 0)
(0.000631865577588 2.725015056e-05 0)
(0.000621107360963 2.51007856029e-05 0)
(0.000611184470293 2.31041118412e-05 0)
(0.000602039677897 2.1248955762e-05 0)
(0.000593619606321 1.95249535181e-05 0)
(0.000585874483793 1.79226198907e-05 0)
(0.000578757870125 1.64334147397e-05 0)
(0.000572226357076 1.50498151857e-05 0)
(0.000566239245494 1.37654010927e-05 0)
(0.000560758200549 1.25749610968e-05 0)
(0.000555746886272 1.14746256101e-05 0)
(0.000551170581726 1.04620320126e-05 0)
(0.000546995784115 9.53652418567e-06 0)
(0.00054318980989 8.69938260611e-06 0)
(0.000539720414721 7.95406882267e-06 0)
(0.000536555468975 7.30644412485e-06 0)
(0.000533662749126 6.76487482745e-06 0)
(0.000531009938873 6.34004417095e-06 0)
(0.00052856497347 6.04410748705e-06 0)
(0.000526296886162 5.88846048719e-06 0)
(0.000524177238372 5.87865297725e-06 0)
(0.000522181717055 6.00358487851e-06 0)
(0.000520289559514 6.21425735918e-06 0)
(0.00051847409794 6.38971754466e-06 0)
(0.0012128974353 0.00015253431261 0)
(0.00124196413392 0.000326207498259 0)
(0.00126638607062 0.00039629272447 0)
(0.00127321029127 0.000404700923102 0)
(0.00126267980982 0.000382674532696 0)
(0.00123942237257 0.000348041427299 0)
(0.00120826312936 0.000309901849464 0)
(0.00117302499957 0.000272590053414 0)
(0.00113643586311 0.000237988713041 0)
(0.00110033107837 0.000206754071559 0)
(0.00106588717444 0.000178946965157 0)
(0.00103381706324 0.000154355073638 0)
(0.00100451720674 0.000132656253154 0)
(0.000978173627848 0.00011349988062 0)
(0.000954836413687 9.65457509786e-05 0)
(0.000934471240711 8.14810335858e-05 0)
(0.000916994558816 6.80260247446e-05 0)
(0.000902297327966 5.59343538203e-05 0)
(0.00089026081693 4.49906240382e-05 0)
(0.000880766941022 3.5007044208e-05 0)
(0.0008737048689 2.58198444975e-05 0)
(0.000868975097689 1.72858611312e-05 0)
(0.000866491822568 9.2794586648e-06 0)
(0.000866184165985 1.68984730009e-06 0)
(0.000867996649087 -5.58120233335e-06 0)
(0.00087188915721 -1.26212434334e-05 0)
(0.000877836576003 -1.95087286493e-05 0)
(0.00088582820634 -2.6314256378e-05 0)
(0.000895867009688 -3.31015080109e-05 0)
(0.000907968713586 -3.99278994603e-05 0)
(0.000922160781334 -4.68449514313e-05 0)
(0.000938481230124 -5.38983745204e-05 0)
(0.000956977265812 -6.11278573057e-05 0)
(0.000977703688851 -6.85665386969e-05 0)
(0.001000721014 -7.62401411823e-05 0)
(0.00102609323602 -8.4165740084e-05 0)
(0.00105388516521 -9.23501476816e-05 0)
(0.00108415925095 -0.000100787902087 0)
(0.00111697181053 -0.000109458872573 0)
(0.00115236858636 -0.000118325528821 0)
(0.0011903795709 -0.000127329975358 0)
(0.00123101307002 -0.000136390926386 0)
(0.00127424902649 -0.000145400890544 0)
(0.00132003170248 -0.000154223943293 0)
(0.00136826192655 -0.000162694572121 0)
(0.00141878924685 -0.00017061815834 0)
(0.00147140449026 -0.000177773668419 0)
(0.00152583338478 -0.000183919017278 0)
(0.00158173202287 -0.00018879929231 0)
(0.00163868497327 -0.000192157575678 0)
(0.00169620673123 -0.000193747521519 0)
(0.00175374689213 -0.000193346264765 0)
(0.00181069894533 -0.000190765878552 0)
(0.00186641200162 -0.000185861724626 0)
(0.00192020428286 -0.000178536863268 0)
(0.00197137709339 -0.000168743113946 0)
(0.00201922843974 -0.000156480731005 0)
(0.00206306625001 -0.000141798966624 0)
(0.00210222164787 -0.00012479885545 0)
(0.0021360627476 -0.000105638998433 0)
(0.00216400991646 -8.45461182808e-05 0)
(0.00218555503136 -6.18310775075e-05 0)
(0.00220028739775 -3.79028645087e-05 0)
(0.00220792421523 -1.32640846677e-05 0)
(0.00220833657355 1.15229977064e-05 0)
(0.00220156067 3.5892301783e-05 0)
(0.00218778975473 5.93319958e-05 0)
(0.00216734960004 8.14264491181e-05 0)
(0.00214066556491 0.00010187037318 0)
(0.00210823138693 0.000120455616725 0)
(0.00207058661142 0.000137044495911 0)
(0.00202830293458 0.000151545694402 0)
(0.00198197570871 0.000163899257335 0)
(0.00193221745488 0.000174069276218 0)
(0.00187965190204 0.000182042455598 0)
(0.00182490731643 0.000187831987277 0)
(0.00176860778356 0.000191484787114 0)
(0.00171136195704 0.000193088305892 0)
(0.00165375013842 0.000192773382963 0)
(0.00159631139139 0.000190711583069 0)
(0.00153953240966 0.000187107507221 0)
(0.00148383934912 0.000182187782211 0)
(0.00142959317826 0.000176188777895 0)
(0.00137708851768 0.000169344870958 0)
(0.00132655551968 0.000161878550813 0)
(0.00127816410325 0.000153993059975 0)
(0.00123202978785 0.000145867723452 0)
(0.00118822041902 0.000137655732075 0)
(0.00114676319913 0.000129483922666 0)
(0.00110765158222 0.000121454020846 0)
(0.00107085173343 0.000113644835432 0)
(0.00103630837351 0.000106114973027 0)
(0.00100394992201 9.89057413731e-05 0)
(0.000973692919313 9.20440084944e-05 0)
(0.00094544575239 8.55448686632e-05 0)
(0.000919111736066 7.94140323097e-05 0)