/*--------------------------------*- C++ -*----------------------------------*\
  =========                 |
  \\      /  F ield         | OpenFOAM: The Open Source CFD Toolbox
   \\    /   O peration     | Website:  https://openfoam.org
    \\  /    A nd           | Version:  7
     \\/     M anipulation  |
\*---------------------------------------------------------------------------*/
FoamFile
{
    version     2.0;
    format      ascii;
    class       volScalarField;
    location    "840";
    object      Ci;
}
// * * * * * * * * * * * * * * * * * * * * * * * * * * * * * * * * * * * * * //

dimensions      [0 -3 0 0 1 0 0];

internalField   nonuniform List<scalar> 
8192
(
10.0000000182
9.99999993655
9.99999981453
9.99999966018
9.99999947291
9.99999925901
9.99999902325
9.99999876942
9.99999850081
9.99999822168
9.99999793605
9.99999764891
9.99999736439
9.99999708742
9.99999682168
9.99999657168
9.99999634029
9.99999613141
9.99999594693
9.99999578988
9.99999566085
9.99999556177
9.9999954916
9.99999545079
9.99999543626
9.99999544664
9.99999547662
9.99999552288
9.99999557785
9.99999563623
9.99999568831
9.99999572716
9.99999574154
9.99999572357
9.99999566145
9.99999554742
9.99999537042
9.99999512416
9.99999479989
9.99999439424
9.99999390229
9.99999332478
9.99999266186
9.99999191897
9.99999110186
9.99999022052
9.99998928602
9.99998831207
9.99998731423
9.9999863087
9.99998531457
9.99998434922
9.99998343401
9.99998258599
9.99998182734
9.9999811733
9.99998064577
9.99998025763
9.99998003034
9.9999799744
9.99998010953
9.99998044283
9.99998098675
9.99998173581
9.99998269091
9.999983834
9.99998515423
9.99998662701
9.99998823479
9.99998994627
9.9999917401
9.99999358325
9.99999545127
9.99999730964
9.99999913105
10.0000008811
10.0000025323
10.0000040541
10.0000054226
10.0000066142
10.000007612
10.0000084026
10.0000089784
10.0000093384
10.0000094857
10.0000094312
10.0000091879
10.0000087761
10.0000082155
10.0000075319
10.0000067477
10.0000058899
10.0000049797
10.0000040419
10.0000030942
10.0000021564
10.0000012401
10.0000003578
9.99999951623
9.99999872485
9.99999798632
9.99999730565
9.99999668182
9.99999611633
9.99999560557
9.9999951487
9.99999474065
9.99999437934
9.99999405922
9.9999937778
9.99999352974
9.99999331274
9.99999312212
9.99999295613
9.99999281091
9.99999268536
9.99999257644
9.99999248349
9.99999240382
9.9999923366
9.99999227857
9.9999922277
9.9999921794
9.99999213081
9.99999207899
9.99999202692
9.99999198329
9.99999195949
9.99999999026
9.99999988686
9.99999977266
9.99999964372
9.99999949087
9.99999931253
9.99999910955
9.99999888456
9.99999864096
9.99999838324
9.9999981158
9.99999784372
9.99999757142
9.9999973039
9.9999970451
9.99999679958
9.99999657056
9.99999636199
9.99999617613
9.99999601609
9.99999588296
9.99999577871
9.99999570299
9.99999565633
9.99999563644
9.99999564209
9.99999566896
9.99999571402
9.99999577088
9.99999583448
9.99999589652
9.99999595026
9.99999598607
9.99999599615
9.99999597038
9.99999590091
9.99999577833
9.99999559599
9.99999534653
9.99999502589
9.99999463009
9.99999415879
9.99999361245
9.99999299498
9.99999231175
9.99999157077
9.99999078206
9.99998995693
9.99998910931
9.99998825269
9.99998740386
9.9999865773
9.99998579144
9.99998506044
9.99998440302
9.99998383192
9.99998336524
9.99998301399
9.99998279543
9.99998271878
9.9999827992
9.99998304226
9.99998345781
9.99998404352
9.99998480014
9.99998571611
9.99998678319
9.99998798313
9.99998930239
9.9999907189
9.99999221554
9.9999937678
9.99999535529
9.99999695112
9.9999985319
10.0000000695
10.0000015393
10.0000029145
10.0000041723
10.0000052902
10.0000062498
10.0000070359
10.000007638
10.0000080504
10.0000082725
10.0000083094
10.0000081701
10.0000078692
10.000007423
10.0000068526
10.0000061779
10.0000054227
10.0000046073
10.0000037542
10.0000028813
10.0000020078
10.0000011457
10.0000003049
9.99999949555
9.99999872776
9.99999800614
9.99999733612
9.99999671832
9.99999615461
9.9999956428
9.99999518234
9.99999476936
9.9999944019
9.99999407535
9.99999378721
9.99999353285
9.99999330981
9.99999311394
9.99999294321
9.99999279417
9.99999266538
9.99999255408
9.9999924593
9.99999237862
9.99999231095
9.99999225337
9.99999220366
9.99999215765
9.99999211247
9.99999206613
9.99999202077
9.99999198371
9.99999196716
9.99999999028
9.9999998809
9.99999977425
9.99999966403
9.99999954093
9.99999940136
9.99999924302
9.9999990658
9.99999887037
9.9999986594
9.99999843557
9.99999820314
9.99999796563
9.99999772789
9.99999749343
9.99999726714
9.99999705204
9.99999685266
9.99999667127
9.9999965118
9.99999637547
9.99999626537
9.99999618142
9.99999612557
9.99999609618
9.99999609372
9.99999611481
9.99999615827
9.999996219
9.99999629401
9.99999637671
9.99999646233
9.99999654334
9.99999661357
9.99999666524
9.99999669158
9.99999668541
9.99999664052
9.99999655114
9.99999641299
9.99999622258
9.99999597855
9.99999568052
9.99999533041
9.99999493153
9.99999448867
9.99999400886
9.99999349889
9.99999296899
9.9999924269
9.9999918852
9.99999135153
9.99999083988
9.9999903568
9.99998991673
9.9999895245
9.99998919443
9.99998892973
9.99998874467
9.99998864134
9.99998863353
9.99998872151
9.99998891647
9.99998921477
9.99998962245
9.99999013095
9.999990741
9.99999144048
9.9999922265
9.9999930855
9.99999401198
9.99999499129
9.99999601477
9.99999706596
9.99999813233
9.99999919549
10.0000002395
10.0000012452
10.0000021946
10.0000030692
10.0000038513
10.0000045256
10.0000050776
10.0000054978
10.0000057778
10.0000059165
10.000005913
10.0000057746
10.0000055078
10.0000051266
10.0000046431
10.0000040755
10.0000034382
10.0000027509
10.0000020278
10.000001287
10.0000005406
9.99999980225
9.99999908014
9.99999838516
9.99999772222
9.9999970986
9.99999651594
9.99999597823
9.99999548446
9.99999503605
9.99999463018
9.99999426656
9.99999394134
9.99999365331
9.99999339829
9.99999317473
9.99999297862
9.99999280854
9.99999266093
9.99999253474
9.99999242699
9.99999233698
9.99999226214
9.99999220177
9.999992153
9.99999211418
9.99999208116
9.99999205101
9.99999202232
9.99999199688
9.99999197934
9.99999198492
9.99999999045
9.99999987931
9.99999977516
9.99999967471
9.99999956884
9.99999945362
9.99999932644
9.99999918616
9.99999903248
9.99999886633
9.99999868909
9.99999850319
9.99999831111
9.9999981162
9.99999792149
9.99999773075
9.9999975471
9.99999737432
9.99999721526
9.99999707332
9.99999695081
9.99999685044
9.9999967737
9.99999672227
9.99999669668
9.99999669714
9.9999967232
9.99999677313
9.9999968458
9.99999693695
9.99999704535
9.99999716371
9.99999729156
9.9999974184
9.99999754522
9.999997659
9.99999776226
9.99999784137
9.99999789963
9.99999792548
9.99999792209
9.99999788218
9.99999780864
9.9999976991
9.999997557
9.99999738389
9.99999718472
9.99999696346
9.9999967267
9.99999647955
9.99999622964
9.99999598224
9.99999574518
9.99999552311
9.99999532322
9.99999514904
9.99999500669
9.99999489873
9.99999483059
9.99999480449
9.99999482547
9.99999489508
9.99999501666
9.99999518924
9.99999541265
9.99999568256
9.99999599583
9.99999634639
9.99999673043
9.99999714237
9.9999975792
9.99999803615
9.99999851036
9.99999899676
9.99999949143
9.99999998805
10.000000481
10.0000009623
10.0000014244
10.0000018577
10.0000022526
10.0000025987
10.0000028859
10.000003105
10.0000032481
10.0000033095
10.0000032854
10.0000031751
10.0000029796
10.0000027035
10.0000023525
10.0000019352
10.0000014606
10.00000094
10.0000003837
9.99999980365
9.99999920994
9.99999861327
9.99999802182
9.99999744416
9.99999688619
9.99999635408
9.99999585128
9.99999538153
9.99999494609
9.99999454659
9.99999418253
9.99999385398
9.99999355923
9.99999329734
9.99999306593
9.99999286354
9.9999926876
9.99999253653
9.99999240788
9.99999230024
9.99999221148
9.99999214044
9.99999208531
9.99999204499
9.99999201767
9.99999200154
9.99999199412
9.99999199167
9.99999199351
9.9999919984
9.99999201286
9.99999204986
9.99999998939
9.99999987571
9.99999977133
9.99999967412
9.99999957606
9.99999947351
9.99999936393
9.9999992461
9.99999911942
9.99999898434
9.99999884153
9.99999869252
9.99999853883
9.99999838281
9.99999822659
9.99999807304
9.99999792465
9.99999778451
9.99999765518
9.99999753964
9.99999744031
9.99999735963
9.99999729977
9.99999726206
9.99999724858
9.99999725864
9.99999729491
9.99999735318
9.99999743826
9.99999754017
9.99999766835
9.99999780422
9.99999796492
9.9999981208
9.99999829891
9.99999845853
9.9999986355
9.99999878267
9.99999893899
9.99999905981
9.99999917889
9.99999926325
9.99999933571
9.99999937866
9.99999940449
9.9999994079
9.9999993956
9.9999993687
9.99999933254
9.99999929024
9.99999924722
9.99999920666
9.99999917378
9.99999915094
9.99999914254
9.99999914969
9.99999917569
9.99999922062
9.99999928721
9.99999937534
9.9999994876
9.99999962344
9.99999978396
9.99999996609
10.0000001674
10.0000003812
10.0000006023
10.0000008225
10.0000010367
10.0000012384
10.0000014245
10.0000015916
10.0000017383
10.0000018635
10.0000019671
10.0000020491
10.0000021101
10.0000021507
10.0000021711
10.000002171
10.0000021489
10.0000021032
10.0000020308
10.0000019292
10.0000017947
10.0000016253
10.0000014183
10.000001173
10.0000008887
10.0000005669
10.0000002091
9.99999981917
9.99999940065
9.99999895919
9.99999849976
9.99999802898
9.99999755238
9.99999707659
9.9999966067
9.99999614847
9.99999570594
9.99999528354
9.99999488393
9.99999451004
9.99999416313
9.99999384471
9.99999355481
9.99999329378
9.99999306069
9.99999285505
9.99999267533
9.99999252052
9.99999238882
9.999992279
9.99999218924
9.99999211836
9.99999206471
9.99999202724
9.99999200459
9.99999199568
9.99999199945
9.99999201395
9.99999203859
9.99999206817
9.99999210643
9.99999214216
9.99999219993
9.99999224564
9.99999998831
9.99999987362
9.9999997685
9.99999967235
9.99999957781
9.99999948161
9.99999938151
9.99999927643
9.99999916587
9.99999905012
9.99999892966
9.99999880557
9.99999867899
9.99999855156
9.99999842494
9.99999830121
9.99999818243
9.99999807089
9.99999796898
9.99999787879
9.99999780311
9.99999774315
9.99999770252
9.9999976802
9.99999768198
9.99999770203
9.99999775139
9.99999781456
9.99999791391
9.99999801598
9.99999816446
9.9999982961
9.99999848892
9.99999863706
9.99999886419
9.99999901545
9.99999926032
9.99999940503
9.99999964531
9.99999977947
9.99999999223
10.0000001152
10.0000002858
10.0000003964
10.0000005243
10.0000006206
10.000000717
10.0000008004
10.0000008812
10.000000959
10.0000010383
10.0000011213
10.000001211
10.0000013091
10.0000014176
10.0000015373
10.0000016692
10.0000018137
10.0000019712
10.000002143
10.0000023298
10.0000025331
10.0000027521
10.0000029855
10.0000032281
10.0000034734
10.000003712
10.0000039348
10.0000041321
10.0000042962
10.0000044201
10.000004499
10.0000045296
10.0000045096
10.0000044389
10.000004318
10.0000041495
10.0000039363
10.0000036831
10.0000033936
10.0000030726
10.0000027235
10.0000023502
10.0000019557
10.0000015431
10.0000011151
10.0000006743
10.0000002231
9.99999976407
9.99999929946
9.99999883178
9.99999836347
9.9999978971
9.99999743536
9.99999698088
9.99999653651
9.99999610484
9.99999568864
9.99999529019
9.99999491189
9.99999455543
9.99999422258
9.99999391427
9.99999363153
9.99999337451
9.99999314347
9.9999929379
9.99999275743
9.99999260099
9.99999246775
9.99999235633
9.99999226563
9.99999219412
9.99999214064
9.99999210372
9.99999208224
9.99999207498
9.99999208089
9.99999209922
9.99999212866
9.99999216935
9.99999221823
9.99999227822
9.99999233918
9.99999241603
9.99999247568
9.9999925863
9.99999261792
9.99999998836
9.99999987363
9.99999976774
9.99999967156
9.99999957846
9.99999948546
9.99999939056
9.99999929282
9.99999919186
9.99999908792
9.99999898144
9.99999887325
9.99999876431
9.99999865587
9.99999854934
9.99999844622
9.99999834843
9.9999982574
9.99999817579
9.99999810429
9.99999804697
9.9999980022
9.99999797743
9.99999796517
9.99999798097
9.99999800398
9.9999980681
9.99999812411
9.99999824439
9.99999832424
9.99999850887
9.99999859584
9.9999988522
9.99999892495
9.999999255
9.99999929587
9.99999968765
9.99999969474
10.000000115
10.0000001093
10.0000005076
10.0000005243
10.000000855
10.00000092
10.0000011686
10.0000012812
10.0000014689
10.0000016104
10.0000017724
10.0000019278
10.0000020897
10.0000022564
10.0000024297
10.0000026103
10.0000027981
10.0000029932
10.0000031952
10.0000034039
10.0000036192
10.0000038426
10.0000040753
10.0000043197
10.0000045765
10.0000048446
10.0000051197
10.0000053945
10.0000056592
10.000005903
10.000006115
10.0000062856
10.0000064066
10.0000064716
10.0000064756
10.0000064154
10.0000062895
10.0000060978
10.0000058422
10.0000055256
10.0000051522
10.0000047279
10.000004258
10.0000037479
10.0000032034
10.0000026308
10.0000020363
10.0000014265
10.0000008078
10.0000001864
9.99999956827
9.99999895872
9.99999836251
9.999997784
9.99999722675
9.99999669394
9.99999618805
9.99999571118
9.99999526485
9.99999485027
9.9999944681
9.99999411875
9.99999380214
9.999993518
9.9999932656
9.99999304407
9.99999285218
9.99999268861
9.99999255177
9.99999244005
9.99999235167
9.99999228489
9.9999922379
9.99999220899
9.99999219647
9.99999219878
9.99999221451
9.99999224228
9.99999228117
9.99999232983
9.99999238823
9.99999245426
9.99999253009
9.99999260987
9.99999270261
9.99999278844
9.9999929014
9.99999297437
9.99999313803
9.99999314571
9.99999998856
9.99999987457
9.99999976957
9.99999967384
9.99999958147
9.99999948996
9.99999939769
9.99999930391
9.99999920838
9.99999911138
9.99999901335
9.99999891498
9.99999881713
9.99999872075
9.99999862719
9.99999853739
9.99999845349
9.99999837579
9.99999830808
9.99999824842
9.99999820443
9.99999816814
9.99999815652
9.99999814664
9.99999817776
9.99999819237
9.99999828006
9.99999830821
9.99999847279
9.99999848961
9.99999876147
9.99999872465
9.9999991447
9.99999899816
9.99999960845
9.99999930091
10.0000001189
9.9999996398
10.0000006214
10.0000000377
10.0000010586
10.0000005124
10.0000014055
10.000001047
10.000001696
10.0000015887
10.0000020009
10.0000020938
10.0000023698
10.0000025658
10.0000028044
10.0000030389
10.0000032819
10.0000035298
10.000003781
10.0000040351
10.0000042892
10.0000045432
10.0000047964
10.0000050519
10.0000053113
10.0000055802
10.00000586
10.0000061527
10.0000064531
10.0000067552
10.0000070462
10.0000073151
10.000007548
10.0000077345
10.0000078648
10.0000079316
10.0000079297
10.0000078542
10.0000077028
10.000007475
10.0000071735
10.0000068018
10.000006366
10.0000058715
10.0000053251
10.0000047329
10.0000041019
10.0000034391
10.0000027514
10.0000020481
10.0000013342
10.0000006156
9.99999990069
9.99999919676
9.99999851108
9.99999784955
9.99999721772
9.99999661979
9.99999605941
9.99999553911
9.99999506076
9.99999462535
9.99999423324
9.99999388415
9.99999357723
9.9999933112
9.99999308428
9.99999289449
9.99999273945
9.99999261675
9.9999925237
9.99999245772
9.99999241609
9.99999239627
9.9999923957
9.9999924121
9.99999244325
9.99999248718
9.99999254224
9.99999260672
9.99999267986
9.99999275976
9.99999284735
9.99999293906
9.99999303996
9.99999313979
9.99999325593
9.99999335531
9.99999349522
9.99999357051
9.99999377443
9.9999937603
9.99999998868
9.99999987468
9.99999976884
9.99999967322
9.99999958156
9.99999949127
9.99999940087
9.99999930968
9.99999921763
9.99999912497
9.99999903225
9.99999893994
9.99999884904
9.99999876004
9.99999867464
9.99999859279
9.99999851772
9.99999844751
9.99999838893
9.99999833475
9.9999983005
9.99999826526
9.99999826585
9.99999824815
9.99999829934
9.99999828833
9.99999841644
9.99999838317
9.99999863443
9.99999851907
9.99999897272
9.99999867071
9.99999944964
9.99999880765
10.0000000706
9.99999891432
10.0000008046
9.99999902141
10.0000015585
9.9999992265
10.0000021843
9.99999966152
10.0000025547
10.0000003917
10.0000026831
10.0000013262
10.0000027626
10.0000022651
10.0000030118
10.0000030753
10.0000034934
10.0000037788
10.0000041171
10.0000044483
10.0000047772
10.0000051023
10.0000054148
10.0000057185
10.0000060128
10.0000063004
10.0000065851
10.0000068734
10.0000071696
10.0000074747
10.0000077851
10.0000080921
10.0000083847
10.0000086493
10.0000088738
10.0000090448
10.0000091536
10.0000091917
10.0000091524
10.0000090314
10.0000088281
10.0000085443
10.0000081843
10.0000077544
10.0000072618
10.0000067134
10.0000061161
10.0000054763
10.0000048002
10.0000040946
10.0000033663
10.0000026228
10.000001872
10.0000011204
10.0000003761
9.9999996446
9.99999892972
9.99999823863
9.99999757769
9.99999695232
9.99999636699
9.99999582515
9.9999953293
9.99999488094
9.99999448073
9.99999412847
9.99999382327
9.99999356357
9.99999334731
9.99999317194
9.99999303464
9.99999293229
9.99999286168
9.99999281949
9.9999928025
9.99999280748
9.99999283147
9.99999287158
9.99999292537
9.99999299035
9.9999930649
9.99999314676
9.99999323564
9.99999332875
9.99999342846
9.99999352906
9.99999363938
9.99999374369
9.99999386863
9.9999939676
9.99999411928
9.99999418772
9.99999440954
9.99999438184
9.99999998929
9.99999987523
9.9999997703
9.99999967447
9.99999958242
9.99999949207
9.99999940214
9.99999931202
9.99999922171
9.99999913141
9.99999904173
9.99999895296
9.99999886625
9.99999878154
9.9999987012
9.99999862375
9.99999855437
9.99999848763
9.99999843552
9.99999838219
9.99999835636
9.99999831619
9.99999833073
9.99999829593
9.99999837538
9.99999832152
9.9999985121
9.99999838136
9.99999877178
9.99999844483
9.99999919949
9.99999845641
9.99999985629
9.99999833958
10.0000008055
9.99999802664
10.0000020664
9.99999752915
10.0000035304
9.99999703224
10.0000048884
9.99999692457
10.0000056961
9.99999763111
10.0000056684
9.99999924458
10.0000050229
10.0000013066
10.0000044317
10.0000031377
10.0000044373
10.0000044416
10.0000050117
10.0000053935
10.0000058116
10.0000062141
10.0000065971
10.0000069604
10.0000072963
10.0000076173
10.0000079326
10.000008253
10.0000085752
10.0000088928
10.0000091958
10.0000094849
10.0000097578
10.0000100136
10.000010239
10.000010418
10.000010531
10.0000105605
10.000010494
10.0000103256
10.0000100566
10.0000096921
10.0000092428
10.0000087196
10.0000081356
10.0000075008
10.0000068254
10.0000061162
10.0000053808
10.0000046249
10.0000038558
10.0000030795
10.0000023037
10.0000015345
10.0000007791
10.0000000436
9.99999933254
9.99999865228
9.99999800255
9.99999738821
9.99999681395
9.99999628299
9.99999579815
9.99999536089
9.99999497211
9.99999463163
9.99999433866
9.99999409159
9.99999388831
9.99999372614
9.99999360206
9.99999351276
9.99999345476
9.99999342451
9.9999934185
9.99999343329
9.99999346569
9.99999351262
9.99999357156
9.99999363981
9.99999371592
9.99999379729
9.99999388427
9.99999397324
9.9999940682
9.99999416132
9.99999426515
9.99999435902
9.99999447737
9.99999456352
9.99999471012
9.99999476512
9.99999498081
9.99999494785
9.99999998892
9.99999987367
9.99999976651
9.99999967001
9.99999957784
9.99999948761
9.9999993981
9.9999993087
9.99999921953
9.99999913065
9.99999904285
9.99999895606
9.9999988719
9.9999987894
9.99999871213
9.9999986365
9.99999857074
9.99999850441
9.99999845694
9.99999840084
9.99999838235
9.99999833281
9.99999836168
9.99999830383
9.9999984148
9.9999983089
9.99999857119
9.99999832581
9.99999887884
9.99999830137
9.99999941855
9.99999813368
10.0000003206
9.99999765907
10.0000017676
9.99999667034
10.0000039465
9.9999950148
10.0000068945
9.99999281415
10.000010242
9.99999073414
10.0000130252
9.99999000488
10.0000139612
9.9999917649
10.0000124401
9.99999591167
10.0000094614
10.0000007402
10.0000070694
10.0000043625
10.0000064341
10.0000063883
10.0000070689
10.0000075644
10.0000080497
10.0000084967
10.0000088971
10.0000092868
10.0000096997
10.0000100784
10.0000103024
10.0000102824
10.0000100599
10.0000097874
10.0000096423
10.0000097255
10.0000100276
10.0000104568
10.0000108883
10.0000112165
10.0000113766
10.0000113442
10.0000111265
10.0000107471
10.0000102368
10.0000096263
10.000008943
10.0000082094
10.0000074428
10.0000066556
10.0000058567
10.0000050525
10.000004248
10.0000034481
10.0000026574
10.0000018815
10.0000011255
10.0000003953
9.99999969509
9.99999903012
9.99999840258
9.99999781629
9.99999727002
9.99999676693
9.99999630923
9.99999589833
9.99999553471
9.99999521811
9.99999494746
9.99999472107
9.99999453658
9.99999439123
9.99999428182
9.99999420493
9.99999415694
9.99999413421
9.99999413317
9.99999415029
9.99999418242
9.99999422642
9.99999427995
9.99999434023
9.99999440625
9.99999447514
9.99999454813
9.99999462086
9.99999469907
9.99999477308
9.99999485873
9.99999493166
9.99999503168
9.99999509678
9.99999522499
9.99999526299
9.99999545444
9.99999542142
9.99999998978
9.99999987348
9.99999976662
9.99999966856
9.99999957439
9.99999948245
9.99999939172
9.99999930158
9.99999921219
9.9999991234
9.99999903618
9.99999894996
9.99999886697
9.9999987851
9.99999870943
9.99999863391
9.99999857024
9.99999850263
9.99999845822
9.99999839802
9.99999838491
9.99999832595
9.99999836577
9.99999828821
9.99999842292
9.99999827662
9.99999859154
9.9999982616
9.99999893317
9.99999817183
9.99999956067
9.9999978604
10.0000006785
9.99999705861
10.0000026302
9.99999533891
10.00000591
9.99999216037
10.0000110315
9.99998713713
10.0000180998
9.99998067117
10.000026033
9.99997473104
10.0000320426
9.99997277789
10.0000326395
9.99997763121
10.000026662
9.99998819498
10.0000175967
9.99999920633
10.000011022
10.000006131
10.0000090184
10.0000090919
10.0000097458
10.0000102381
10.0000107656
10.0000115522
10.0000121889
10.0000116095
10.0000087225
10.0000034099
9.99999689263
9.9999911391
9.99998783612
9.99998766688
9.9999902314
9.99999446244
9.99999916845
10.000003431
10.0000067481
10.0000089885
10.0000102594
10.0000107665
10.0000107259
10.0000103147
10.0000096645
10.000008863
10.0000079719
10.0000070336
10.0000060825
10.0000051429
10.0000042337
10.0000033641
10.0000025393
10.0000017589
10.0000010222
10.0000003269
9.9999996727
9.9999990592
9.99999848723
9.99999795747
9.9999974708
9.99999702653
9.99999662472
9.9999962663
9.99999595169
9.99999568031
9.99999545103
9.99999526195
9.99999511067
9.99999499432
9.99999490965
9.99999485317
9.99999482128
9.99999481032
9.99999481675
9.99999483713
9.99999486846
9.9999949077
9.99999495287
9.99999500128
9.99999505252
9.99999510362
9.99999515693
9.99999520746
9.99999526278
9.99999531174
9.99999537303
9.99999541979
9.99999549522
9.99999553547
9.9999956384
9.99999565799
9.99999581684
9.99999578499
9.99999998887
9.99999987044
9.99999976009
9.99999966044
9.99999956511
9.99999947202
9.99999938031
9.99999928932
9.99999919939
9.99999911012
9.9999990228
9.9999989363
9.9999988535
9.99999877122
9.99999869592
9.99999861943
9.99999855623
9.9999984866
9.99999844282
9.99999837901
9.99999836688
9.9999983022
9.99999834368
9.99999825804
9.99999839536
9.99999823894
9.9999985576
9.9999982161
9.9999988942
9.99999811646
9.9999995278
9.99999777836
10.0000006992
9.99999687249
10.0000028688
9.99999478126
10.0000068499
9.99999047612
10.0000138934
9.99998256787
10.0000254013
9.99996996987
10.0000417782
9.9999536065
10.0000602845
9.99993859952
10.0000735575
9.99993398859
10.000072592
9.99994657605
10.0000552527
9.99997212647
10.0000319797
9.99999609775
10.0000166959
10.0000092548
10.0000119512
10.0000124404
10.000014652
10.0000167828
10.0000114072
9.99998916502
9.99994530855
9.99988533193
9.99982382154
9.99977739778
9.99975724906
9.9997653434
9.99979560227
9.99983804026
9.99988278111
9.99992269033
9.99995419947
9.99997672783
9.99999150441
10.0000004448
10.0000054182
10.0000079099
10.0000089497
10.0000091709
10.0000089172
10.0000083545
10.0000075636
10.0000066006
10.0000055243
10.0000043994
10.0000032869
10.0000022354
10.000001275
10.0000004186
9.99999966541
9.9999990071
9.99999843157
9.99999792748
9.99999748459
9.99999709559
9.99999675446
9.9999964571
9.99999620172
9.99999598676
9.99999581022
9.99999566978
9.99999556248
9.99999548506
9.99999543386
9.99999540511
9.99999539497
9.99999539967
9.99999541579
9.99999543996
9.99999546961
9.99999550193
9.99999553568
9.99999556833
9.99999560063
9.99999562945
9.99999565883
9.99999568289
9.99999571178
9.99999573231
9.9999957668
9.99999578519
9.99999583477
9.99999584916
9.99999592656
9.99999592724
9.99999605473
9.99999602161
9.99999998997
9.99999986991
9.99999975944
9.99999965709
9.99999955835
9.99999946202
9.99999936755
9.99999927423
9.99999918245
9.99999909154
9.99999900298
9.99999891518
9.99999883143
9.99999874787
9.99999867161
9.99999859363
9.99999852914
9.99999845777
9.99999841182
9.99999834653
9.9999983302
9.999998266
9.9999982985
9.9999982199
9.99999833683
9.99999820488
9.99999847635
9.999998201
9.99999877138
9.99999815201
9.99999932666
9.99999792383
10.0000003567
9.99999721841
10.0000023092
9.99999540292
10.0000061004
9.99999120649
10.0000134919
9.99998232641
10.0000274243
9.99996534525
10.0000515738
9.99993711522
10.0000876214
9.99989908285
10.0001295717
9.99986322886
10.0001595653
9.99985171542
10.00015515
9.99988151477
10.0001113467
9.99993999332
10.0000580163
9.99998993434
10.0000209024
10.0000196587
10.0000297798
10.0000036542
9.99987920474
9.99960866314
9.99919718123
9.99871966314
9.9982910022
9.9980146954
9.99794461853
9.99807177874
9.99834121918
9.99868098843
9.99902483925
9.9993265163
9.99956382144
9.99973438596
9.99984782169
9.99991822491
9.99995917631
9.99998147802
9.9999928133
9.99999824046
10.0000008553
10.0000023475
10.0000034673
10.0000044018
10.000005085
10.0000053984
10.0000052832
10.0000047641
10.0000039342
10.0000029159
10.00000183
10.0000007733
9.99999981134
9.99999897824
9.99999828459
9.99999772361
9.99999728035
9.99999693485
9.99999666864
9.99999646578
9.99999631294
9.99999619931
9.99999611642
9.99999605762
9.99999601771
9.9999959924
9.99999597828
9.99999597223
9.99999597195
9.99999597487
9.99999597977
9.99999598427
9.99999598866
9.99999599017
9.99999599154
9.99999598833
9.99999598755
9.99999598031
9.99999598155
9.99999597241
9.99999598285
9.99999597363
9.999996003
9.99999599228
9.99999605191
9.99999603188
9.9999961381
9.99999609492
9.99999998865
9.9999998659
9.99999975113
9.9999996466
9.99999954593
9.99999944748
9.99999935087
9.99999925542
9.99999916168
9.99999906887
9.99999897853
9.99999888894
9.99999880338
9.99999871805
9.99999863963
9.99999855991
9.99999849237
9.99999841968
9.99999836879
9.9999983038
9.9999982786
9.99999821936
9.99999823461
9.99999817262
9.99999825406
9.99999816587
9.99999836192
9.99999819105
9.99999859867
9.99999821632
9.99999903882
9.99999815716
9.99999983364
9.99999781169
10.0000013094
9.99999671388
10.0000041936
9.99999380294
10.0000101079
9.9999867338
10.000022501
9.99997074869
10.0000478287
9.99993787444
10.0000952428
9.99987946024
10.000170613
9.99979628846
10.0002629234
9.99971287281
10.0003334892
9.99968029437
10.000324725
9.99974803375
10.0002237164
9.99986253923
10.0001162774
10.0000424113
9.99997967746
9.99943016036
9.99811226023
9.99591811669
9.99308719207
9.99019031793
9.98787978422
9.98663461373
9.98663187176
9.98771794154
9.98953882498
9.99169265488
9.99382386451
9.99568504624
9.99715657267
9.99822589263
9.99894810455
9.99940617689
9.99968157705
9.99983921358
9.99992443299
9.99996660377
9.99998425975
9.99998913688
9.99998859254
9.99998693582
9.99998627901
9.99998724325
9.99998958104
9.99999267858
9.99999589365
9.99999873642
10.0000009245
10.0000023645
10.0000030985
10.0000032466
10.0000029587
10.0000023826
10.0000016447
10.000000844
10.0000000501
9.99999930918
9.99999864793
9.99999807811
9.99999760111
9.99999721175
9.99999690124
9.99999665875
9.99999647352
9.99999633439
9.99999623245
9.99999615796
9.99999610542
9.9999960663
9.99999603954
9.99999601625
9.99999600128
9.99999598239
9.99999597332
9.99999595325
9.99999595063
9.99999592702
9.99999593623
9.99999590702
9.9999959367
9.99999589673
9.9999959567
9.99999589488
9.99999599678
9.99999589875
9.99999998997
9.99999986537
9.99999975026
9.99999964228
9.99999953724
9.99999943453
9.99999933404
9.99999923512
9.99999913823
9.99999904257
9.99999894945
9.99999885735
9.99999876901
9.99999868136
9.99999859969
9.99999851796
9.99999844607
9.99999837221
9.9999983148
9.99999825086
9.99999821489
9.99999816212
9.99999815804
9.99999811471
9.99999815927
9.9999981161
9.99999823867
9.99999816854
9.99999842596
9.99999826092
9.99999877153
9.99999835112
9.99999937242
9.99999832723
10.0000004313
9.99999792123
10.0000023954
9.99999649825
10.0000063037
9.99999250261
10.0000146978
9.99998203512
10.0000337773
9.99995589671
10.0000769322
9.99989647715
10.0001653879
9.99978258331
10.0003151936
9.99961026162
10.0005137444
9.99941281151
10.000695257
9.99931936239
10.0006540525
9.9994650802
10.0006737481
9.99961907636
9.99812041145
9.99287374117
9.98366387885
9.97074148952
9.95603022418
9.94253799704
9.93296361006
9.92889863169
9.93064136636
9.93711958843
9.94662142713
9.95742041671
9.96800904631
9.97730995632
9.98477075757
9.99029423342
9.99409530528
9.99654645343
9.99804533039
9.99892894187
9.99944016519
9.99973328084
9.99989784519
9.99998405271
10.0000212794
10.0000285624
10.0000193138
10.000003037
9.99998600065
9.99997177023
9.99996185013
9.99995636232
9.99995465721
9.99995577159
9.99995872812
9.99996269227
9.99996703262
9.99997131873
9.99997528992
9.99997881407
9.9999818472
9.99998440104
9.9999865195
9.99998825927
9.99998967991
9.99999083676
9.99999177927
9.99999254781
9.9999931772
9.99999369237
9.99999411709
9.99999446376
9.99999475081
9.99999498008
9.9999951709
9.99999531356
9.99999543565
9.99999551081
9.99999558508
9.99999560441
9.99999564914
9.99999561785
9.99999565062
9.99999556611
9.99999560432
9.99999545341
9.99999551361
9.99999527007
9.99999536891
9.99999499708
9.99999998835
9.99999986082
9.99999974103
9.9999996306
9.99999952318
9.99999941775
9.99999931433
9.99999921246
9.99999911257
9.99999901403
9.99999891785
9.99999882297
9.99999873129
9.99999864095
9.99999855535
9.99999847114
9.99999839422
9.99999831857
9.99999825416
9.99999819026
9.99999814376
9.99999809526
9.99999807402
9.99999804429
9.9999980587
9.9999980488
9.99999811498
9.99999811887
9.99999826603
9.99999825828
9.99999854806
9.99999845284
9.99999902826
9.99999864396
9.99999984548
9.9999986747
10.0000012922
9.99999818365
10.0000039726
9.99999637959
10.0000092004
9.999991319
10.000020447
9.99997713606
10.0000483394
9.99993615237
10.0001209073
9.99983002539
10.0002827295
9.99962004094
10.0005576649
9.99928438979
10.0010138873
9.99871887518
10.001456382
9.99902324826
10.0014869364
9.99293108455
9.97965465433
9.9471635144
9.90167625943
9.84505280228
9.78711403506