/*--------------------------------*- C++ -*----------------------------------*\
  =========                 |
  \\      /  F ield         | OpenFOAM: The Open Source CFD Toolbox
   \\    /   O peration     | Website:  https://openfoam.org
    \\  /    A nd           | Version:  7
     \\/     M anipulation  |
\*---------------------------------------------------------------------------*/
FoamFile
{
    version     2.0;
    format      ascii;
    class       surfaceScalarField;
    location    "840";
    object      phi;
}
// * * * * * * * * * * * * * * * * * * * * * * * * * * * * * * * * * * * * * //

dimensions      [0 3 -1 0 0 0 0];

internalField   nonuniform List<scalar> 
16192
(
6.92891538044e-10
2.44608461956e-10
4.93499815363e-10
1.99391728119e-10
3.6475338852e-10
1.28746432199e-10
2.82187613502e-10
8.25657800508e-11
2.27603310265e-10
5.45843081787e-11
1.90052206143e-10
3.75511090126e-11
1.63187114835e-10
2.68650961865e-11
1.4329160711e-10
1.98955126102e-11
1.28128564781e-10
1.51630472327e-11
1.16303585793e-10
1.18249838935e-11
1.06915015301e-10
9.38857538709e-12
9.93587027488e-11
7.55631740366e-12
9.32163725178e-11
6.14233502028e-12
8.8189900464e-11
5.02647674227e-12
8.40613927312e-11
4.12851230487e-12
8.06681699429e-11
3.39322720364e-12
7.78866158955e-11
2.78155829591e-12
7.56214540395e-11
2.26516589726e-12
7.37984432712e-11
1.82301459903e-12
7.23592861992e-11
1.43916065383e-12
7.12580058566e-11
1.10128368141e-12
7.04583196719e-11
7.9968924692e-13
6.99317058805e-11
5.26616596717e-13
6.96559598449e-11
2.75748559581e-13
6.96141037551e-11
4.18583714852e-14
6.97935547604e-11
-1.79448975422e-13
7.0185483906e-11
-3.91927302509e-13
7.0784317812e-11
-5.98832237357e-13
7.15873493599e-11
-8.03029956223e-13
7.25944286728e-11
-1.00707775698e-12
7.38077126268e-11
-1.21328229796e-12
7.52314537377e-11
-1.4237392791e-12
7.68718122371e-11
-1.6403563141e-12
7.87366745923e-11
-1.86485970269e-12
8.08354624766e-11
-2.09878454588e-12
8.31789137747e-11
-2.34344712351e-12
8.57788166452e-11
-2.59989760713e-12
8.86476743875e-11
-2.86885121119e-12
9.17982782532e-11
-3.15059579597e-12
9.52431631753e-11
-3.44487512305e-12
9.89939234855e-11
-3.75074851819e-12
1.03060368552e-10
-4.06643110491e-12
1.07449507958e-10
-4.38912305116e-12
1.1216436939e-10
-4.71484255547e-12
1.17202674865e-10
-5.03828393389e-12
1.22555428142e-10
-5.35272902168e-12
1.28205499211e-10
-5.65004407674e-12
1.34126322553e-10
-5.92079367631e-12
1.40280848997e-10
-6.15449423606e-12
1.46620895751e-10
-6.34001220342e-12
1.53087019232e-10
-6.46608690599e-12
1.59608989165e-10
-6.52193168411e-12
1.66106876682e-10
-6.49784810567e-12
1.72492702172e-10
-6.38578541741e-12
1.78672536729e-10
-6.17979450808e-12
1.8454893287e-10
-5.8763567244e-12
1.90023572878e-10
-5.47460203763e-12
1.9500006536e-10
-4.97645662919e-12
1.99386871085e-10
-4.38677287957e-12
2.03100384622e-10
-3.71348437661e-12
2.06068183272e-10
-2.96777405656e-12
2.08232333063e-10
-2.1641303263e-12
2.09552404268e-10
-1.32005756637e-12
2.10007646241e-10
-4.55234406445e-13
2.0959778285e-10
4.09864570065e-13
2.08342187541e-10
1.25559028802e-12
2.06277612323e-10
2.06456410829e-12
2.03454950185e-10
2.82264550016e-12
1.99935688982e-10
3.51923945611e-12
1.95788691857e-10
4.14697104185e-12
1.91087692955e-10
4.70096906643e-12
1.85909571626e-10
5.17808859906e-12
1.80333209357e-10
5.57632731582e-12
1.74438627774e-10
5.89454528381e-12
1.68306112822e-10
6.13247800403e-12
1.620151155e-10
6.29096054668e-12
1.55642843484e-10
6.3722360538e-12
1.4926260023e-10
6.38020878606e-12
1.42942039351e-10
6.32052841292e-12
1.36741557082e-10
6.20045228424e-12
1.30713030374e-10
6.02849954081e-12
1.24899044027e-10
5.81396225159e-12
1.19332661221e-10
5.56636193522e-12
1.14037707344e-10
5.29493626716e-12
1.09029474139e-10
5.00821883561e-12
1.04315717675e-10
4.71374518704e-12
9.98978186281e-11
4.41789071024e-12
9.57719877209e-11
4.12582523311e-12
9.19304263347e-11
3.84155814092e-12
8.83623808108e-11
3.56804436299e-12
8.50550571451e-11
3.30732432846e-12
8.19943831843e-11
3.06067608904e-12
7.91656221098e-11
2.82876442286e-12
7.6553849195e-11
2.61177715105e-12
7.41443102261e-11
2.40954389001e-12
7.19226801262e-11
2.22163542332e-12
6.98752413036e-11
2.04744440049e-12
6.79889979753e-11
1.88624893794e-12
6.6251741902e-11
1.73726162418e-12
6.46520810123e-11
1.59966621931e-12
6.31794415234e-11
1.47264455836e-12
6.18240506334e-11
1.35539559031e-12
6.05769064674e-11
1.24714850018e-12
5.94297391094e-11
1.1471712602e-12
5.83749666387e-11
1.05477597414e-12
5.7405647836e-11
9.69321873297e-13
5.6515433624e-11
8.9021690175e-13
5.56985174768e-11
8.16918442929e-13
5.49495855532e-11
7.48933886527e-13
5.4263765713e-11
6.85821468775e-13
5.36365750301e-11
6.27192039961e-13
5.30638638394e-11
5.72712279509e-13
5.25417545075e-11
5.22110211917e-13
5.20665712395e-11
4.75183942195e-13
5.16347566591e-11
4.31815101468e-13
5.12427680536e-11
3.91988973156e-13
5.08869438447e-11
3.55824467597e-13
5.05633253048e-11
3.23618685058e-13
5.02674115208e-11
2.95913852708e-13
4.9993812234e-11
2.7359927212e-13
4.9735742518e-11
2.58069652677e-13
4.948426683e-11
2.51475575139e-13
4.92271426484e-11
2.57124066457e-13
4.89470336018e-11
2.80108953703e-13
4.86188201158e-11
3.28213495128e-13
4.82061804046e-11
4.12639862181e-13
4.76605214454e-11
5.45659229078e-13
7.00182284627e-13
9.53376429652e-10
2.28732037929e-10
8.59590464735e-10
2.9317770379e-10
7.45063497442e-10
2.43273409748e-10
6.41950004837e-10
1.85679282381e-10
5.56876458099e-10
1.39657864467e-10
4.88635596195e-10
1.05791980389e-10
4.34199350482e-10
8.13013513494e-11
3.90609341184e-10
6.34855313517e-11
3.55447378548e-10
5.03250192917e-11
3.26853426878e-10
4.04189449302e-11
3.0342570999e-10
3.28163015409e-11
2.8411082403e-10
2.68712124708e-11
2.68112892436e-10
2.21402755127e-11
2.54825132555e-10
1.83142452523e-11
2.43780129043e-10
1.51735241286e-11
2.34614130583e-10
1.25592335965e-11
2.27041420083e-10
1.03542763077e-11
2.20835806338e-10
8.47078667761e-12
2.15817136357e-10
6.84169110516e-12
2.11841361935e-10
5.4149410426e-12
2.08793143e-10
4.14950800756e-12
2.06580279594e-10
3.01255743535e-12
2.05129477021e-10
1.97742335138e-12
2.0438309342e-10
1.02213573382e-12
2.04296619386e-10
1.28335413946e-13
2.04836707526e-10
-7.19534639802e-13
2.05979616658e-10
-1.53483440034e-12
2.07709971606e-10
-2.32918550808e-12
2.10019762774e-10
-3.11281965213e-12
2.12907522483e-10
-3.89483604965e-12
2.163776272e-10
-4.68338543027e-12
2.20439680785e-10
-5.4857908883e-12
2.2510793834e-10
-6.30861120338e-12
2.30400730617e-10
-7.15764832278e-12
2.36339849136e-10
-8.03789804547e-12
2.429498494e-10
-8.95344063757e-12
2.50257227743e-10
-9.9072670404e-12
2.5828942399e-10
-1.09010359769e-11
2.67073601573e-10
-1.19347588716e-11
2.76635157329e-10
-1.30064129276e-11
2.86995920057e-10
-1.41114894228e-11
2.98172009306e-10
-1.52424942877e-11
3.10171349204e-10
-1.63884323015e-11
3.22990865914e-10
-1.75343237828e-11
3.36613444629e-10
-1.86608221503e-11
3.51004779212e-10
-1.97440180195e-11
3.66110310708e-10
-2.07555249487e-11
3.81852508463e-10
-2.16629359459e-11
3.98128785767e-10
-2.24307115329e-11
4.14810344614e-10
-2.30215069972e-11
4.31742199005e-10
-2.33978738735e-11
4.487445331e-10
-2.35241957883e-11
4.65615422262e-10
-2.33686657186e-11
4.82134813793e-10
-2.29051049459e-11
4.98069561569e-10
-2.21144711201e-11
5.13179264034e-10
-2.09859901859e-11
5.27222667272e-10
-1.95179399104e-11
5.39964453322e-10
-1.7718182396e-11
5.51182305992e-10
-1.56045718919e-11
5.60674201885e-10
-1.32053346379e-11
5.68265836143e-10
-1.05593720788e-11
5.73817879458e-10
-7.71614783838e-12
5.77232372914e-10
-4.73453647349e-12
5.78457240798e-10
-1.68009930528e-12
5.77487962161e-10
1.37913462918e-12
5.74365986698e-10
4.37754612656e-12
5.69174224186e-10
7.25629669548e-12
5.62030503141e-10
9.96632744114e-12
5.53080220196e-10
1.24694753086e-11
5.42489368218e-10
1.47377693526e-11
5.30438710818e-10
1.67515676045e-11
5.17119289077e-10
1.84974477952e-11
5.02728979824e-10
1.99665717668e-11
4.87469612952e-10
2.11538465897e-11
4.71544147499e-10
2.2057878468e-11
4.55153538656e-10
2.2681506298e-11
4.38493145998e-10
2.30325686227e-11
4.21748787111e-10
2.31245115925e-11
4.05092746828e-10
2.29765173914e-11
3.88680155038e-10
2.26129981726e-11
3.72646124652e-10
2.20624898242e-11
3.57103926571e-10
2.13561262712e-11
3.42144315385e-10
2.05259451396e-11
3.27835958809e-10
1.96032708316e-11
3.14226798646e-10
1.86173626967e-11
3.01346098698e-10
1.7594434161e-11
2.89206914827e-10
1.65570684699e-11
2.77808742414e-10
1.5523995849e-11
2.67140142016e-10
1.45101604933e-11
2.57181198393e-10
1.35269930844e-11
2.47905722337e-10
1.25828080601e-11
2.39283149458e-10
1.16832586367e-11
2.31280125677e-10
1.0831799363e-11
2.2386179207e-10
1.0030122907e-11
2.16992797217e-10
9.27855147786e-12
2.10638071405e-10
8.57637416193e-12
2.04763400133e-10
7.922128506e-12
1.99335832017e-10
7.3138295116e-12
1.94323954076e-10
6.74915147162e-12
1.89698062107e-10
6.2255693675e-12
1.8543025057e-10
5.74046646672e-12
1.81494441081e-10
5.29121455165e-12
1.778663658e-10
4.87523234705e-12
1.74523517578e-10
4.49002711719e-12
1.71445076812e-10
4.13322348643e-12
1.68611821548e-10
3.80258301264e-12
1.66006026195e-10
3.49601733353e-12
1.63611351565e-10
3.21159739478e-12
1.61412728275e-10
2.94756082937e-12
1.59396233288e-10
2.70231948994e-12
1.5754895885e-10
2.4744689793e-12
1.55858870921e-10
2.26280222832e-12
1.54314653406e-10
2.06632934212e-12
1.52905532101e-10
1.8843065017e-12
1.51621070813e-10
1.71627734723e-12
1.50450929071e-10
1.56213140993e-12
1.49384568476e-10
1.42218554623e-12
1.48410891092e-10
1.29729636327e-12
1.4751779116e-10
1.18901393632e-12
1.46691600984e-10
1.09978948092e-12
1.45916420933e-10
1.03324967032e-12
1.4517335501e-10
9.945414403e-13
1.44439767305e-10
9.90711765764e-13
1.43688924845e-10
1.03095151288e-12
1.42891055893e-10
1.12608269531e-12
1.42018482968e-10
1.28521318159e-12
1.41062729534e-10
1.50141311008e-12
1.69972122802e-12
9.76216277939e-10
1.90015765341e-10
9.62990564162e-10
3.06403428227e-10
9.06149552055e-10
3.00114431914e-10
8.33861806586e-10
2.57967037432e-10
7.61121524903e-10
2.1239815557e-10
6.94337171265e-10
1.72576343374e-10
6.35575960304e-10
1.4006257164e-10
5.84938979489e-10
1.14122521482e-10
5.4174040246e-10
9.35236056127e-11
5.05056809051e-10
7.71025475623e-11
4.73965728818e-10
6.39073908908e-11
4.47637319804e-10
5.31996304305e-11
4.25359677491e-10
4.44179265624e-11
4.06536144812e-10
3.71377863885e-11
3.90672364446e-10
3.10373126337e-11
3.77360929103e-10
2.58706766879e-11
3.66266849829e-10
2.14483629092e-11
3.571149493e-10
1.7622694038e-11
3.49679369728e-10
1.42772769878e-11
3.43775021076e-10
1.13192954152e-11
3.39250681995e-10
8.67385220799e-12
3.35983457359e-10
6.27978652805e-12
3.33874329002e-10
4.08655551411e-12
3.32844578163e-10
2.05188968598e-12
3.32832899919e-10
1.40016121279e-13
3.33793063957e-10
-1.67969687455e-12
3.35692003113e-10
-3.43377232255e-12
3.38508239209e-10
-5.14542091026e-12
3.42230567272e-10
-6.83514741175e-12
3.46856930318e-10
-8.52119909555e-12
3.5239342684e-10
-1.02198820386e-11
3.58853396754e-10
-1.19457608202e-11
3.66256535056e-10
-1.37117491641e-11
3.74627981324e-10
-1.55290936646e-11
3.83997333013e-10
-1.74072478608e-11
3.94397526696e-10
-1.93536312048e-11
4.05863529934e-10
-2.13732655018e-11
4.18430783165e-10
-2.34682824235e-11
4.32133332381e-10
-2.5637298849e-11
4.47001596372e-10
-2.78746648609e-11
4.63059724009e-10
-3.01696017542e-11
4.80322515747e-10
-3.25052671351e-11
4.9879191619e-10
-3.48578099153e-11
5.18453129691e-10
-3.71955102665e-11
5.39270472498e-10
-3.94781335406e-11
5.61183147664e-10
-4.16566572651e-11
5.84101208057e-10
-4.36735449138e-11
6.07902044027e-10
-4.54637270791e-11
6.32427778609e-10
-4.69563971359e-11
6.5748395468e-10
-4.80776302993e-11
6.82839838956e-10
-4.87537021723e-11
7.08230546777e-10
-4.89148450545e-11
7.33361024042e-10
-4.8499082761e-11
7.57911750039e-10
-4.74557699419e-11
7.81545887184e-10
-4.57485476784e-11
8.03917540371e-10
-4.33575842868e-11
8.24680795172e-10
-4.02811385203e-11
8.43499266415e-10
-3.6536601546e-11
8.60055966287e-10
-3.21612252645e-11
8.74063374313e-10
-2.72127029347e-11
8.8527357335e-10
-2.17695395327e-11
8.93488082564e-10
-1.59306344698e-11
8.98566512234e-10
-9.81295343522e-12
9.00432700249e-10
-3.54628465447e-12
8.99077056573e-10
2.73477083764e-12
8.94554586156e-10
8.89999955955e-12
8.86979029353e-10
1.48318276171e-11
8.76514275755e-10
2.04310474209e-11
8.63364612203e-10
2.56190985278e-11
8.47765342716e-10
3.03369931718e-11
8.29974774679e-10
3.45420858127e-11
8.10267802265e-10
3.82043676372e-11
7.88930736968e-10
4.13035829553e-11
7.66256800729e-10
4.38277285385e-11
7.42541698834e-10
4.57729270255e-11
7.18078843126e-10
4.7144310784e-11
6.93154057148e-10
4.79573064209e-11
6.68039909748e-10
4.82386147046e-11
6.42990081617e-10
4.80263057576e-11
6.18234293608e-10
4.73687514289e-11
5.93974293409e-10
4.63224605965e-11
5.70381247971e-10
4.49491477393e-11
5.47594682363e-10
4.33124922427e-11
5.25722902077e-10
4.14750378863e-11
5.04844678098e-10
3.94955784653e-11
4.85011880891e-10
3.74272277452e-11
4.66252722304e-10
3.53162275978e-11
4.48575286372e-10
3.32014359114e-11
4.31971085276e-10
3.11143688116e-11
4.16418443024e-10
2.90796450353e-11
4.01885577602e-10
2.7115685173e-11
3.88333309072e-10
2.5235540273e-11
3.75717368058e-10
2.34477544821e-11
3.63990310138e-10
2.17571954435e-11
3.53103064191e-10
2.01658122358e-11
3.43006153061e-10
1.86732999197e-11
3.33650631366e-10
1.72776644375e-11
3.24988784127e-10
1.59756903283e-11
3.16974628747e-10
1.47633196658e-11
3.09564257182e-10
1.36359528148e-11
3.02716051653e-10
1.25886829263e-11
2.96390800754e-10
1.16164753417e-11
2.90551739399e-10
1.07143025966e-11
2.85164530297e-10
9.87724409017e-12
2.80197202086e-10
9.10055862859e-12
2.75620054622e-10
8.37973647935e-12
2.71405540234e-10
7.7105369024e-12
2.67528126088e-10
7.0890159324e-12
2.63964141763e-10
6.5115488679e-12
2.6069161315e-10
5.97485118082e-12
2.57690083052e-10
5.47600162338e-12
2.54940416325e-10
5.01247101111e-12
2.52424586724e-10
4.58216060197e-12
2.50125440409e-10
4.18345411003e-12
2.48026430611e-10
3.81528815196e-12
2.46111316479e-10
3.47724628127e-12
2.44363820161e-10
3.16968240054e-12
2.42767238011e-10
2.89387885723e-12
2.41304009605e-10
2.65224254747e-12
2.39955263841e-10
2.44853532102e-12
2.38700396159e-10
2.28811736331e-12
2.37516799048e-10
2.17813853188e-12
2.36380002671e-10
2.12750819269e-12
2.35264735004e-10
2.14621936568e-12
2.34147847553e-10
2.2429704916e-12
2.33014723193e-10
2.41833797282e-12
2.31869637647e-10
2.64649906461e-12
2.83135409004e-12
9.71774782332e-10
1.55740988378e-10
9.86727233947e-10
2.91450987277e-10
9.68301437505e-10
3.18540238395e-10
9.28117421366e-10
2.98151063053e-10
8.78029580263e-10
2.62486005956e-10
8.25558793384e-10
2.25047139448e-10
7.74853368694e-10
1.9076800549e-10
7.27944940605e-10
1.61030958703e-10
6.85646109656e-10
1.35822445645e-10
6.48107314786e-10
1.14641351423e-10
6.15142652974e-10
9.68720615522e-11
5.86413609185e-10
8.19286828707e-11
5.6152925402e-10
6.93022901254e-11
5.40098633416e-10
5.85684150754e-11
5.21756369668e-10
4.93795840935e-11
5.06173581726e-10
4.14534719051e-11
4.93060996023e-10
3.45609553911e-11
4.82168094953e-10
2.85156013232e-11
4.7328042404e-10
2.31649534934e-11
4.66216201839e-10
1.83835225203e-11
4.60822828868e-10
1.40672293384e-11
4.56973587456e-10
1.01290312947e-11
4.54564658231e-10
6.49548724754e-12
4.53512489689e-10
3.10405984558e-12
4.53751511543e-10
-9.90050249829e-14
4.55232158191e-10
-3.16034374262e-12
4.57919158723e-10
-6.12077398678e-12
4.61790055402e-10
-9.0163196095e-12
4.66833898732e-10
-1.18789935854e-11
4.7305007289e-10
-1.47373768413e-11
4.80447205233e-10
-1.76170185883e-11
4.89042112343e-10
-2.05406726076e-11
4.98858733715e-10
-2.35283754865e-11
5.09927001164e-10
-2.65973661145e-11
5.22281589079e-10
-2.97618405519e-11
5.35960486593e-10
-3.30325329681e-11
5.51003329859e-10
-3.6416112146e-11
5.67449430346e-10
-3.99143850489e-11
5.85335436316e-10
-4.3523305319e-11
6.04692570017e-10
-4.72317970126e-11
6.25543396307e-10
-5.10204240283e-11
6.47898101228e-10
-5.48599651646e-11
6.71750295485e-10
-5.87099940185e-11
6.97072409583e-10
-6.25176105945e-11
7.23810816168e-10
-6.62165224453e-11
7.51880898232e-10
-6.97267175008e-11
7.81162372255e-10
-7.2954992825e-11
8.1149525931e-10
-7.57965836861e-11
8.42676953624e-10
-7.81380567503e-11
8.74460843708e-10
-7.98614816273e-11
9.06556874313e-10
-8.08496903306e-11
9.38634293835e-10
-8.09922189311e-11
9.70326628791e-10
-8.01913695481e-11
1.00123871257e-09
-7.83678038243e-11
1.03095542601e-09
-7.54652104627e-11
1.05905172853e-09
-7.14538364413e-11
1.08510356984e-09
-6.63329309446e-11
1.10869934246e-09
-6.01323280017e-11
1.12945162809e-09
-5.29134688036e-11
1.14700910159e-09
-4.47701397402e-11
1.16106851299e-09
-3.58289208912e-11
1.17138644754e-09
-2.62485467247e-11
1.17778988527e-09
-1.62163773986e-11
1.18018383466e-09
-5.94022920475e-12
1.17855434028e-09
4.36426118891e-12
1.17296618742e-09
1.44881399788e-11
1.16355588596e-09
2.42421090301e-11
1.15052135414e-09
3.3465552607e-11
1.1341102082e-09
4.20302124262e-11
1.11460856564e-09
4.9838599479e-11
1.09233156143e-09
5.681905078e-11
1.06761575395e-09
6.29201341003e-11
1.0408129119e-09
6.81063833786e-11
1.01228447661e-09
7.23561227077e-11
9.82396045092e-10
7.56613189761e-11
9.51511391204e-10
7.80289275875e-11
9.19985845547e-10
7.94828182569e-11
8.88159233848e-10
8.00651964965e-11
8.5634888572e-10
7.98366283594e-11
8.24843362788e-10
7.88742535597e-11
7.93897500144e-10
7.72683073311e-11
7.63729163332e-10
7.51174735857e-11
7.34517871009e-10
7.25237784282e-11
7.06405193291e-10
6.95877140816e-11
6.79496654195e-10
6.6404120303e-11
6.53864764679e-10
6.30591238534e-11
6.29552785956e-10
5.96282162674e-11
6.06578853268e-10
5.61753813761e-11
5.84940154667e-10
5.27530824769e-11
5.64616936727e-10
4.94028797892e-11
5.45576185061e-10
4.61564548898e-11
5.27774892455e-10
4.30368516855e-11
5.11162878943e-10
4.00597871279e-11
4.9568516469e-10
3.72349287721e-11
4.8128392131e-10
3.45670743141e-11
4.67900041114e-10
3.20571981593e-11
4.55474371014e-10
2.97033517224e-11
4.43948658859e-10
2.75014186349e-11
4.33266258655e-10
2.54457348856e-11
4.2337263669e-10
2.35295885774e-11
4.14215716296e-10
2.17456158768e-11
4.05746093215e-10
2.00861097281e-11
3.97917148961e-10
1.85432569413e-11
3.90685084298e-10
1.71093176672e-11
3.84008891133e-10
1.57767596051e-11
3.77850276847e-10
1.45383575428e-11
3.72173552222e-10
1.33872673629e-11
3.66945490836e-10
1.23170822925e-11
3.62135165719e-10
1.13218781956e-11
3.57713766556e-10
1.03962538688e-11
3.53654399286e-10
9.53537182649e-12
3.49931868009e-10
8.73500469866e-12
3.46522438303e-10
7.99159227717e-12
3.43403579851e-10
7.3023141477e-12
3.40553686486e-10
6.66518278225e-12
3.37951772302e-10
6.07916145475e-12
3.35577145436e-10
5.54431002778e-12
3.33409066558e-10
5.06195830016e-12
3.31426410182e-10
4.6348993286e-12
3.29607366066e-10
4.26757970817e-12
3.27929251436e-10
3.96623217276e-12
3.26368559187e-10
3.73883091087e-12
3.24901451954e-10
3.59461557864e-12
3.23505024632e-10
3.54264693738e-12
3.22159747259e-10
3.58824824966e-12
3.20853176649e-10
3.72490902571e-12
3.19582629248e-10
3.91704685658e-12
4.06978859165e-12
9.63987215365e-10
1.29253778577e-10
9.87858382976e-10
2.67579830486e-10
9.90133964036e-10
3.16264667484e-10
9.72894908482e-10
3.15390128198e-10
9.4308046002e-10
2.92300463796e-10
9.06729281379e-10
2.61398327368e-10
8.68028854749e-10
2.29468441358e-10
8.29620147485e-10
1.99439675167e-10
7.93054576812e-10
1.72388025454e-10
7.59167823102e-10
1.48528114157e-10
7.2834450854e-10
1.27695384975e-10
7.00694995298e-10
1.09578204748e-10
6.76169862449e-10
9.38274313284e-11
6.54632474502e-10
8.01058110266e-11
6.35904134367e-10
6.81079318239e-11
6.1979160346e-10
5.75660099236e-11
6.06103421472e-10
4.82491439424e-11
5.94659190354e-10
3.99598383761e-11
5.85294491777e-10
3.25296573086e-11
5.77863135702e-10
2.58148830525e-11
5.72237812663e-10
1.96925559873e-11
5.68309822017e-10
1.40570246204e-11
5.65988293494e-10
8.81701746194e-12
5.65199156714e-10
3.89319725706e-12
5.65884010373e-10
-7.83859152809e-13
5.67998972431e-10
-5.27530741782e-12
5.7151355738e-10
-9.63536171093e-12
5.76409602756e-10
-1.39123689301e-11
5.8268023479e-10
-1.81496306971e-11
5.9032885927e-10
-2.23860074909e-11
5.99368153691e-10
-2.66563201729e-11
6.09819028673e-10
-3.09915556393e-11
6.21709520296e-10
-3.54188758757e-11
6.35073568473e-10
-3.99614235867e-11
6.49949630952e-10
-4.46379126009e-11
6.66379076809e-10
-4.94619883994e-11
6.84404299163e-10
-5.44413437447e-11
7.04066483859e-10
-5.95765783068e-11
7.25402971625e-10
-6.48598005616e-11
7.48444156424e-10
-7.02729877926e-11
7.73209875871e-10
-7.57861475156e-11
7.99705272808e-10
-8.13553637671e-11
8.27916144669e-10
-8.69208647345e-11
8.57803851525e-10
-9.24053130868e-11
8.8929992719e-10
-9.77125901585e-11
9.22300628999e-10
-1.02727407452e-10
9.56661764317e-10
-1.07316112142e-10
9.92194231325e-10
-1.11329030387e-10
1.02866078417e-09
-1.14604584949e-10
1.06577454896e-09
-1.16975217488e-10
1.10319974771e-09
-1.1827485612e-10
1.14055492168e-09
-1.18347356254e-10
1.17741870051e-09
-1.17055108608e-10
1.21333789918e-09
-1.14286960263e-10
1.24783751624e-09
-1.09964783721e-10
1.28043211815e-09
-1.04048393908e-10
1.31063812247e-09
-9.65388913486e-11
1.33798658488e-09
-8.74807482027e-11
1.36203620431e-09
-7.69630490943e-11
1.38238642904e-09
-6.5120329729e-11
1.39869074285e-09
-5.21332057453e-11
1.41067006694e-09
-3.82278487564e-11
1.4181252592e-09
-2.36715553964e-11
1.420946422e-09
-8.76138591406e-12
1.41911663828e-09
6.19404286124e-12
1.41270927172e-09
2.08954968999e-11
1.40187965473e-09
3.5071709648e-11
1.38685291597e-09
4.84922693923e-11
1.36791027646e-09
6.09728255353e-11
1.34537623801e-09
7.23726083423e-11
1.31960811029e-09
8.25871468829e-11
1.29098787149e-09
9.15403404205e-11
1.25991554726e-09
9.9178675308e-11
1.22680322391e-09
1.05468414926e-10
1.19206894959e-09
1.10395564231e-10
1.1561299618e-09
1.13967889162e-10
1.11939503346e-09
1.16217723833e-10
1.08225620725e-09
1.17204003888e-10
1.04508057496e-09
1.1701224612e-10
1.00820290766e-09
1.15751910808e-10
9.71919848513e-10
1.13551361e-10
9.36486127472e-10
1.10551193671e-10
9.02112947556e-10
1.06896961758e-10
8.68968409484e-10
1.0273225965e-10
8.37179638604e-10
9.81929024028e-11
8.06836172732e-10
9.34026042048e-11
7.77994152407e-10
8.84702538449e-11
7.50680899957e-10
8.34886533052e-11
7.24899553034e-10
7.85344505837e-11
7.00633507188e-10
7.36689479856e-11
6.77850506135e-10
6.89394789815e-11
6.56506288185e-10
6.43810928967e-11
6.36547751496e-10
6.00183469161e-11
6.17915638765e-10
5.58670640783e-11
6.00546767432e-10
5.19359674262e-11
5.84375845803e-10
4.82281405238e-11
5.69336923049e-10
4.47422940057e-11
5.55364522466e-10
4.14738374018e-11
5.42394506217e-10
3.84157679049e-11
5.30364715758e-10
3.55593943431e-11
5.19215427804e-10
3.28949176823e-11
5.08889660236e-10
3.04118897096e-11
4.99333357587e-10
2.80995706287e-11
4.90495480606e-10
2.59472043708e-11
4.82328020332e-10
2.39442283822e-11
4.74785952847e-10
2.20804323968e-11
4.67827147776e-10
2.03460787758e-11
4.61412240314e-10
1.8731995166e-11
4.55504474271e-10
1.72296488258e-11
4.5006952126e-10
1.58312107335e-11
4.45075279571e-10
1.45296167369e-11
4.40491654677e-10
1.33186322593e-11
4.36290322599e-10
1.21929265524e-11
4.32444476688e-10
1.11481618502e-11
4.28928558967e-10
1.01811019574e-11
4.25717978374e-10
9.28974321032e-12
4.22788821535e-10
8.47346778877e-12
4.20117566997e-10
7.73321355215e-12
4.17680823202e-10
7.07164366771e-12
4.15455124592e-10
6.49327871789e-12
4.13416841508e-10
6.00451555016e-12
4.11542287801e-10
5.61338484347e-12
4.09808140918e-10
5.32876268597e-12
4.08192296271e-10
5.15849187373e-12
4.06675156943e-10
5.10538797176e-12
4.05240744333e-10
5.15932207702e-12
4.03874786066e-10
5.28300550871e-12
5.39186349651e-12
9.57621296549e-10
1.09132487721e-10
9.82805599204e-10
2.42395538626e-10
9.95578186006e-10
3.03492090789e-10
9.93186585425e-10
3.17781738311e-10
9.78771119628e-10
3.06715938915e-10
9.56428728395e-10
2.83740727835e-10
9.29607001343e-10
2.56290177612e-10
9.00835833025e-10
2.28210852651e-10
8.71850749731e-10
2.01373117846e-10
8.43786003326e-10
1.76592869537e-10
8.1734662842e-10
1.54134768674e-10
7.92941433371e-10
1.33983408346e-10
7.70780002303e-10
1.15988870637e-10
7.50941386042e-10
9.99444351521e-11
7.33421873477e-10
8.56274518086e-11
7.18167774272e-10
7.28201160278e-11
7.05097649802e-10
6.13192747148e-11
6.94117200212e-10
5.0940293589e-11
6.85129083223e-10
4.15177791586e-11
6.7803925984e-10
3.29047104438e-11
6.72760976166e-10
2.49708427314e-11
6.69217147627e-10
1.76008552008e-11
6.67341672097e-10
1.06924939235e-11
6.67080031107e-10
4.15483798644e-12
6.68389422509e-10
-2.09325207448e-12
6.71238578328e-10
-8.12446607791e-12
6.75607384862e-10
-1.40041724475e-11
6.81486368062e-10
-1.97913577189e-11
6.88876073818e-10
-2.55393434276e-11
6.97786359215e-10
-3.12963012188e-11
7.08235593584e-10
-3.71055641699e-11
7.2024975496e-10
-4.30057278428e-11
7.33861396756e-10
-4.90305295617e-11
7.4910845009e-10
-5.5208489693e-11
7.66032818919e-10
-6.15622948614e-11
7.84678717754e-10
-6.81079010509e-11
8.05090695658e-10
-7.48533355355e-11
8.27311286057e-10
-8.17971822963e-11
8.51378220779e-10
-8.89267481796e-11
8.77321150499e-10
-9.62159292686e-11
9.05157824698e-10
-1.03622831876e-10
9.34889705843e-10
-1.11087252989e-10
9.66497028238e-10
-1.1852819265e-10
9.99933366659e-10
-1.25841653991e-10
1.03511985615e-09
-1.32899078664e-10
1.07193930373e-09
-1.39546850176e-10
1.11023054947e-09
-1.45607348819e-10
1.14978355459e-09
-1.50882021971e-10
1.19033579089e-09
-1.55156803089e-10
1.23157054117e-09
-1.58209944927e-10
1.27311765411e-09
-1.59821941659e-10
1.31455710683e-09
-1.59786777252e-10
1.35542543032e-09
-1.57923396512e-10
1.39522472088e-09
-1.54086211976e-10
1.4334337012e-09
-1.48173722748e-10
1.4695201992e-09
-1.40134849118e-10
1.50295447798e-09
-1.29973126984e-10
1.53322297886e-09
-1.17749206868e-10
1.55984215711e-09
-1.03582187496e-10
1.58237231607e-09
-8.76504527799e-11
1.60043178299e-09
-7.01926422473e-11
1.61371184652e-09
-5.15078888164e-11
1.62199152295e-09
-3.19512163321e-11
1.62514898194e-09
-1.19188379721e-11
1.6231661313e-09
8.17689196397e-12
1.61612529304e-09
2.79363257782e-11
1.60419925493e-09
4.69977316283e-11
1.58763684797e-09
6.5054654809e-11
1.56674689571e-09
8.18627522995e-11
1.54188375108e-09
9.72357249131e-11
1.51343622187e-09
1.11034646793e-10
1.48181948295e-09
1.23157049983e-10
1.44746863693e-09
1.33529493034e-10
1.4108328126e-09
1.42104212977e-10
1.37236895673e-09
1.48859396669e-10
1.33253462892e-09
1.5380219705e-10
1.29177952703e-09
1.56972809816e-10
1.25053610479e-09
1.58447414556e-10
1.20921014321e-09
1.58338200638e-10
1.16817229491e-09
1.56789756643e-10
1.12775146449e-09
1.53972193515e-10
1.08823055015e-09
1.50072114549e-10
1.04984468481e-09
1.4528283781e-10
1.01278178017e-09
1.39795178877e-10
9.77184950874e-10
1.3378974971e-10
9.43156294073e-10
1.2743128196e-10
9.10761499706e-10
1.20865071556e-10
8.80034835439e-10
1.14215342759e-10
8.50984149513e-10
1.0758516297e-10
8.23595639078e-10
1.01057485632e-10
7.97838223875e-10
9.46969216456e-11
7.73667439401e-10
8.85519046421e-11
7.51028818272e-10
8.26569947379e-11
7.29860766102e-10
7.70351420406e-11
7.10096961975e-10
7.16997961765e-11
6.91668327022e-10
6.66567987268e-11
6.74504610735e-10
6.19060320219e-11
6.58535645809e-10
5.74428224364e-11
6.43692320427e-10
5.32591117256e-11
6.29907313021e-10
4.93444185024e-11
6.17115629958e-10
4.56866158403e-11
6.05254981413e-10
4.22725517406e-11
5.94266025839e-10
3.90885381567e-11
5.84092508595e-10
3.61207321246e-11
5.74681316096e-10
3.33554300543e-11
5.65982462872e-10
3.07792935656e-11
5.57949025655e-10
2.8379522827e-11
5.50537035564e-10
2.61439910919e-11
5.43705337064e-10
2.40613522778e-11
5.37415420171e-10
2.21211317995e-11
5.31631230792e-10
2.03138096136e-11
5.26318962678e-10
1.86309032852e-11
5.21446833715e-10
1.70650579297e-11
5.16984848822e-10
1.56101487309e-11
5.12904552131e-10
1.42614002777e-11
5.09178772149e-10
1.30155245169e-11
5.05781365966e-10
1.18708750418e-11
5.02686972229e-10
1.08276081392e-11
4.99870788318e-10
9.88782824447e-12
4.97308394748e-10
9.05567279661e-12
4.94975659084e-10
8.33725159804e-12
4.92848758909e-10
7.74028531487e-12
4.90904357612e-10
7.2731642491e-12
4.89119912304e-10
6.94293748552e-12
4.87473887205e-10
6.75141345782e-12
4.85945017619e-10
6.68819209085e-12
4.84508336626e-10
6.71968687545e-12
6.77595608663e-12
9.53023721973e-10
9.36087713914e-11
9.76811862714e-10
2.18607408604e-10
9.94480893888e-10
2.85823069662e-10
1.0013019987e-09
3.10960642959e-10
9.97893727959e-10
3.101242189e-10
9.86657830421e-10
2.94976634534e-10
9.70129992359e-10
2.72818024806e-10
9.50437311941e-10
2.47903542172e-10
9.29206492413e-10
2.22603946407e-10
9.07620851876e-10
1.9817851898e-10
8.86511165026e-10
1.75244464243e-10
8.66441725757e-10
1.54052856081e-10
8.47781260556e-10
1.34649343986e-10
8.30758052294e-10
1.16967651172e-10
8.15501543198e-10
1.00883968203e-10
8.02073192097e-10
8.6248473889e-11
7.90489091121e-10
7.29033818331e-11
7.80736386288e-10
6.06930038601e-11
7.7278509584e-10
4.9469074251e-11
7.66596538653e-10
3.90932713874e-11
7.62129281216e-10
2.94381029428e-11
7.59343276984e-10
2.03868611287e-11
7.58202693871e-10
1.1833077561e-11
7.58677791841e-10
3.67973927773e-12
7.60746113396e-10
-4.16157571092e-12
7.64393163816e-10
-1.17715199957e-11
7.69612736187e-10
-1.9223749788e-11
7.76406957791e-10
-2.65855858023e-11
7.84786115723e-10
-3.39185093642e-11
7.94768297669e-10
-4.12784926817e-11
8.06378863605e-10
-4.87161410921e-11
8.19649748296e-10
-5.62766249077e-11
8.34618581231e-10
-6.39993761369e-11
8.51327599218e-10
-7.19175224245e-11
8.69822316706e-10
-8.00570279836e-11
8.90149909808e-10
-8.84355104181e-11
9.12357262189e-10
-9.70607045042e-11
9.36488614799e-10
-1.05928551459e-10
9.62582757933e-10
-1.15020907429e-10
9.9066970492e-10
-1.24302891493e-10
1.02076679418e-09
-1.33719935027e-10
1.05287418409e-09
-1.43194654939e-10
1.08696973731e-09
-1.5262375556e-10
1.12300334404e-09
-1.61875267568e-10
1.16089081173e-09
-1.70786549873e-10
1.20050755633e-09
-1.79163594531e-10