/*--------------------------------*- C++ -*----------------------------------*\
  =========                 |
  \\      /  F ield         | OpenFOAM: The Open Source CFD Toolbox
   \\    /   O peration     | Website:  https://openfoam.org
    \\  /    A nd           | Version:  7
     \\/     M anipulation  |
\*---------------------------------------------------------------------------*/
FoamFile
{
    version     2.0;
    format      ascii;
    class       volVectorField;
    location    "840";
    object      U;
}
// * * * * * * * * * * * * * * * * * * * * * * * * * * * * * * * * * * * * * //

dimensions      [0 1 -1 0 0 0 0];

internalField   nonuniform List<vector> 
8192
(
(0.00104345058435 0.000156549415652 0)
(0.000759290466181 0.000127610705996 0)
(0.000549282050485 8.23977166071e-05 0)
(0.000414042241294 5.28420992325e-05 0)
(0.000326266191211 3.49339572344e-05 0)
(0.000267299530501 2.40327097681e-05 0)
(0.000226073165426 1.71936615594e-05 0)
(0.000196146382045 1.27331280705e-05 0)
(0.00017370891001 9.70435022892e-06 0)
(0.000156436576367 7.56798969183e-06 0)
(0.0001428599047 6.00868824774e-06 0)
(0.000132015179552 4.83604313834e-06 0)
(0.000123248048171 3.93109441298e-06 0)
(0.000116100014708 3.21694511505e-06 0)
(0.000110240827645 2.64224787512e-06 0)
(0.000105426920111 2.17166541033e-06 0)
(0.000101475062937 1.78019730938e-06 0)
(9.82451647584e-05 1.44970617425e-06 0)
(9.56287342789e-05 1.16672934338e-06 0)
(9.35409468611e-05 9.21062818448e-07 0)
(9.19150669157e-05 7.04821556101e-07 0)
(9.06984483382e-05 5.11801118029e-07 0)
(8.98496163536e-05 3.37034621899e-07 0)
(8.93361060643e-05 1.76479078132e-07 0)
(8.9132840704e-05 2.67893577506e-08 0)
(8.92209014499e-05 -1.1484734427e-07 0)
(8.95865847465e-05 -2.50833473606e-07 0)
(9.02206730995e-05 -3.83252631908e-07 0)
(9.111786699e-05 -5.13939171983e-07 0)
(9.22763379409e-05 -6.44529764467e-07 0)
(9.36973704317e-05 -7.76500670698e-07 0)
(9.53850664733e-05 -9.11193138625e-07 0)
(9.73460902239e-05 -1.04982804102e-06 0)
(9.95894315709e-05 -1.19351020972e-06 0)
(0.000102126167724 -1.34322210936e-06 0)
(0.000104969200801 -1.49980615904e-06 0)
(0.000108132947469 -1.66393446856e-06 0)
(0.000111632954261 -1.83606477516e-06 0)
(0.00011548540969 -2.01638130942e-06 0)
(0.000119706522514 -2.20472007875e-06 0)
(0.000124311735463 -2.40047905164e-06 0)
(0.000129314746904 -2.60251590714e-06 0)
(0.000134726320966 -2.80903875274e-06 0)
(0.000140552881502 -3.0174992355e-06 0)
(0.000146794908323 -3.22450171769e-06 0)
(0.000153445185925 -3.42574657388e-06 0)
(0.000160486993506 -3.61602820911e-06 0)
(0.000167892365929 -3.78930795284e-06 0)
(0.000175620589792 -3.93887631108e-06 0)
(0.000183617116639 -4.05760781019e-06 0)
(0.000191813065589 -4.13829561983e-06 0)
(0.000200125445374 -4.17403627783e-06 0)
(0.000208458154142 -4.15862278763e-06 0)
(0.000216703730466 -4.08690266714e-06 0)
(0.000224745752897 -3.95506848517e-06 0)
(0.000232461740544 -3.76086830362e-06 0)
(0.000239726403678 -3.50374530409e-06 0)
(0.000246415128472 -3.18493224268e-06 0)
(0.000252407639325 -2.80753464293e-06 0)
(0.000257591843653 -2.37663000103e-06 0)
(0.000261867883453 -1.8993753962e-06 0)
(0.000265152330454 -1.38504340883e-06 0)
(0.000267382231892 -8.44836842475e-07 0)
(0.000268518432326 -2.91350020125e-07 0)
(0.000268547474618 2.62313324842e-07 0)
(0.00026748158105 8.03577784331e-07 0)
(0.000265356671913 1.3213210293e-06 0)
(0.000262228840005 1.8064931201e-06 0)
(0.000258170009067 2.25231325191e-06 0)
(0.000253263603737 2.65406146679e-06 0)
(0.000247600886279 3.00862020252e-06 0)
(0.000241278249332 3.3139767034e-06 0)
(0.00023439537983 3.56884948212e-06 0)
(0.000227053975764 3.77250898164e-06 0)
(0.000219356633981 3.92478592258e-06 0)
(0.000211405586126 4.02621474987e-06 0)
(0.00020330109375 4.07823107443e-06 0)
(0.000195139483977 4.08333362308e-06 0)
(0.000187010969332 4.04513818427e-06 0)
(0.000178997501718 3.96828946191e-06 0)
(0.000171170935972 3.85823970612e-06 0)
(0.000163591727617 3.72093584102e-06 0)
(0.000156308291359 3.56247163854e-06 0)
(0.000149357035882 3.38875921098e-06 0)
(0.000142762996149 3.20526005479e-06 0)
(0.000136540922761 3.0167969197e-06 0)
(0.000130696663234 2.82745005456e-06 0)
(0.000125228676063 2.64052814919e-06 0)
(0.000120129544996 2.45859721019e-06 0)
(0.000115387396573 2.28354839231e-06 0)
(0.000110987160292 2.11668757021e-06 0)
(0.000106911641811 1.95883269699e-06 0)
(0.000103142403388 1.81040923063e-06 0)
(9.96604616351e-05 1.67153737667e-06 0)
(9.64468220295e-05 1.5421080896e-06 0)
(9.34828738255e-05 1.42184667092e-06 0)
(9.07506697151e-05 1.31036441631e-06 0)
(8.82331131385e-05 1.20719932028e-06 0)
(8.59140735215e-05 1.11184743947e-06 0)
(8.37784466652e-05 1.02378638036e-06 0)
(8.18121744229e-05 9.42492517349e-07 0)
(8.00022349804e-05 8.67453177798e-07 0)
(7.83366125445e-05 7.98175040112e-07 0)
(7.68042531692e-05 7.34189606529e-07 0)
(7.53950116788e-05 6.7505662345e-07 0)
(7.40995932638e-05 6.2036599891e-07 0)
(7.29094921344e-05 5.6973881712e-07 0)
(7.18169287046e-05 5.22827803475e-07 0)
(7.08147859392e-05 4.79317687377e-07 0)
(6.98965448104e-05 4.38925740016e-07 0)
(6.90562180755e-05 4.01402905575e-07 0)
(6.82882808765e-05 3.66535858885e-07 0)
(6.7587595742e-05 3.34150535627e-07 0)
(6.69493284781e-05 3.04117723005e-07 0)
(6.63688498551e-05 2.76361664939e-07 0)
(6.58416158161e-05 2.5087294282e-07 0)
(6.53630156149e-05 2.27727659262e-07 0)
(6.49281722557e-05 2.07115958437e-07 0)
(6.45316715684e-05 1.89384865733e-07 0)
(6.4167183203e-05 1.75103534157e-07 0)
(6.38269150413e-05 1.65164577713e-07 0)
(6.35008059828e-05 1.60944368089e-07 0)
(6.31753020662e-05 1.64559402532e-07 0)
(6.28314728002e-05 1.7926973037e-07 0)
(6.24421463793e-05 2.10056636882e-07 0)
(6.19680003331e-05 2.64089511796e-07 0)
(6.1354689184e-05 3.4922190661e-07 0)
(6.05573509689e-05 4.48116662161e-07 0)
(0.00121016091498 0.000302937919926 0)
(0.00116029881241 0.000315244436422 0)
(0.00102697853579 0.000238092698846 0)
(0.000887688641459 0.000171676839956 0)
(0.000767248936279 0.000124314990493 0)
(0.000669127714748 9.1739577217e-05 0)
(0.000590614365873 6.9226526423e-05 0)
(0.000527877562666 5.33638681356e-05 0)
(0.000477476300628 4.19123625756e-05 0)
(0.000436672515473 3.34361144471e-05 0)
(0.000403378647596 2.70111212339e-05 0)
(0.000376023381773 2.20336191197e-05 0)
(0.000353423178538 1.81008707411e-05 0)
(0.000334680335995 1.49380620766e-05 0)
(0.000319107367423 1.23533033174e-05 0)
(0.00030617232616 1.02095749121e-05 0)
(0.000295459552426 8.40693414629e-06 0)
(0.00028664142491 6.87100964792e-06 0)
(0.000279457883325 5.54541165068e-06 0)
(0.000273701438907 4.38662508571e-06 0)
(0.000269206083158 3.36050668094e-06 0)
(0.00026583899046 2.43983787666e-06 0)
(0.000263494244233 1.60258556678e-06 0)
(0.000262088045082 8.30645947779e-07 0)
(0.000261555016196 1.08924022676e-07 0)
(0.000261845329224 -5.75349513743e-07 0)
(0.000262922447478 -1.23312748983e-06 0)
(0.000264761336489 -1.87393135708e-06 0)
(0.000267347030003 -2.50614374935e-06 0)
(0.000270673462565 -3.13722483624e-06 0)
(0.000274742495797 -3.77386734607e-06 0)
(0.00027956307711 -4.42209930714e-06 0)
(0.00028515047624 -5.08733921119e-06 0)
(0.000291525548133 -5.7744051363e-06 0)
(0.000298713971042 -6.48747685846e-06 0)
(0.000306745407063 -7.23000816709e-06 0)
(0.000315652529371 -8.00458537442e-06 0)
(0.000325469857109 -8.81272780037e-06 0)
(0.00033623233636 -9.65462698726e-06 0)
(0.000347973605697 -1.05288243524e-05 0)
(0.000360723889527 -1.14318322822e-05 0)
(0.000374507474793 -1.23577122513e-05 0)
(0.000389339749446 -1.32976354257e-05 0)
(0.000405223817675 -1.42394664565e-05 0)
(0.000422146758748 -1.51674278939e-05 0)
(0.000440075663259 -1.60619181063e-05 0)
(0.000458953657549 -1.68995641763e-05 0)
(0.000478696204269 -1.76535869582e-05 0)
(0.000499188028307 -1.82945316922e-05 0)
(0.000520281043444 -1.87913722884e-05 0)
(0.000541793627916 -1.91129348989e-05 0)
(0.000563511508548 -1.92295215823e-05 0)
(0.000585190371432 -1.91145688475e-05 0)
(0.000606560151075 -1.87461698325e-05 0)
(0.000627330800232 -1.8108330002e-05 0)
(0.000647199248387 -1.71919020226e-05 0)
(0.000665857236036 -1.59952268468e-05 0)
(0.00068299975718 -1.45245689761e-05 0)
(0.000698333925961 -1.27944606538e-05 0)
(0.000711588165041 -1.08280441693e-05 0)
(0.000722521624338 -8.65737352662e-06 0)
(0.000730933577985 -6.32337802539e-06 0)
(0.000736672161518 -3.87494018551e-06 0)
(0.000739641352776 -1.36661357551e-06 0)
(0.000739804929894 1.14495948752e-06 0)
(0.00073718652727 3.60520730533e-06 0)
(0.000731865734966 5.96535091441e-06 0)
(0.000723971025489 8.18494268243e-06 0)
(0.000713670862936 1.02327774494e-05 0)
(0.000701164536585 1.20862338524e-05 0)
(0.000686673970583 1.37296234694e-05 0)
(0.000670437119932 1.51523432923e-05 0)
(0.000652702892097 1.63474554129e-05 0)
(0.000633727099377 1.73109707991e-05 0)
(0.000613768806689 1.80418281421e-05 0)
(0.000593086519139 1.85423787806e-05 0)
(0.000571933878178 1.8819074993e-05 0)
(0.00055055483719 1.88830210423e-05 0)
(0.000529178581721 1.87501093148e-05 0)
(0.000508014657194 1.84406082924e-05 0)
(0.000487248819002 1.79782331936e-05 0)
(0.000467040032783 1.73888566546e-05 0)
(0.000447518874852 1.66990765279e-05 0)
(0.000428787375484 1.59348525432e-05 0)
(0.000410920164771 1.51203721807e-05 0)
(0.0003939666543 1.42772347828e-05 0)
(0.000377953928656 1.34239738753e-05 0)
(0.000362890020634 1.25758854926e-05 0)
(0.000348767286036 1.17450999259e-05 0)
(0.000335565657862 1.09408239663e-05 0)
(0.000323255629267 1.01696847287e-05 0)
(0.000311800877949 9.43611822449e-06 0)
(0.000301160496087 8.74276082295e-06 0)
(0.000291290827358 8.09081603715e-06 0)
(0.000282146937143 7.48038103543e-06 0)
(0.000273683755918 6.91072613456e-06 0)
(0.000265856941784 6.38052666015e-06 0)
(0.000258623508576 5.88805020771e-06 0)
(0.0002519422631 5.43130438131e-06 0)
(0.000245774090357 5.00815077556e-06 0)
(0.000240082120113 4.61639105605e-06 0)
(0.000234831802656 4.25383049085e-06 0)
(0.000229990916403 3.91832374223e-06 0)
(0.000225529525362 3.60780696153e-06 0)
(0.000221419900409 3.32031965476e-06 0)
(0.000217636414951 3.054019127e-06 0)
(0.000214155422556 2.80718991058e-06 0)
(0.000210955121766 2.57825013614e-06 0)
(0.000208015411098 2.36575661817e-06 0)
(0.0002053177354 2.16841021358e-06 0)
(0.000202844922968 1.98506305232e-06 0)
(0.000200581011053 1.81472928501e-06 0)
(0.000198511055569 1.65660131458e-06 0)
(0.000196620918724 1.51007388409e-06 0)
(0.000194897025865 1.37477916716e-06 0)
(0.000193326079926 1.25063704517e-06 0)
(0.00019189471843 1.13792640885e-06 0)
(0.000190589094123 1.03738563093e-06 0)
(0.000189394356641 9.50353784981e-07 0)
(0.000188294010972 8.78968801944e-07 0)
(0.000187269134026 8.26444366719e-07 0)
(0.000186297456603 7.97450889881e-07 0)
(0.000185352398281 7.98614932621e-07 0)
(0.000184402362976 8.39078698613e-07 0)
(0.000183411187672 9.30749561877e-07 0)
(0.000182342104871 1.08662594801e-06 0)
(0.000181171976001 1.31012629706e-06 0)
(0.000179920589073 1.5359382481e-06 0)
(0.00122477841788 0.000267998594093 0)
(0.00124109237894 0.000383731924491 0)
(0.00119624967438 0.000347768218664 0)
(0.00111360726953 0.00028393364468 0)
(0.00102078933215 0.000225315852823 0)
(0.000931493565548 0.000178155727208 0)
(0.000851144404204 0.000141672910713 0)
(0.000781129561467 0.000113669153813 0)
(0.000721074804447 9.20631199388e-05 0)
(0.000669950215367 7.52137551952e-05 0)
(0.000626574424236 6.19031631563e-05 0)
(0.000589825951118 5.12453394569e-05 0)
(0.000558718078269 4.25972493281e-05 0)
(0.000532413326274 3.54893002501e-05 0)
(0.000510213445925 2.95749355279e-05 0)
(0.000491541307871 2.4595142582e-05 0)
(0.000475921778517 2.03536890988e-05 0)
(0.000462964351442 1.6699827658e-05 0)
(0.000452348364178 1.35161395795e-05 0)
(0.000443810810115 1.0709911333e-05 0)
(0.000437136449965 8.20695053795e-06 0)
(0.000432149849186 5.94710013658e-06 0)
(0.000428708983271 3.88094647392e-06 0)
(0.000426700100585 1.96737626867e-06 0)
(0.000426033585972 1.71744982544e-07 0)
(0.000426640616881 -1.53550816918e-06 0)
(0.000428470442925 -3.17990830265e-06 0)
(0.000431488155086 -4.78374810774e-06 0)
(0.000435672836148 -6.36669892088e-06 0)
(0.000441015998457 -7.94626249293e-06 0)
(0.000447520228581 -9.53809118007e-06 0)
(0.0004551979671 -1.11561930934e-05 0)
(0.000464070356358 -1.28130306352e-05 0)
(0.000474166090483 -1.45195148719e-05 0)
(0.000485520201175 -1.628489338e-05 0)
(0.000498172710213 -1.81165259791e-05 0)
(0.000512167076243 -2.0019540827e-05 0)
(0.000527548360384 -2.19963637762e-05 0)
(0.00054436103395 -2.40461169412e-05 0)
(0.000562646354402 -2.61638897846e-05 0)
(0.000582439245044 -2.83398983532e-05 0)
(0.000603764633444 -3.05585673106e-05 0)
(0.00062663323644 -3.27975950188e-05 0)
(0.000651036829364 -3.50270937915e-05 0)
(0.000676943105401 -3.72089316422e-05 0)
(0.000704290316904 -3.92964321821e-05 0)
(0.000732981987662 -4.1234604712e-05 0)
(0.000762882081334 -4.2961064336e-05 0)
(0.000793811086487 -4.4407749548e-05 0)
(0.000825543509305 -4.55034478697e-05 0)
(0.000857807227927 -4.61770086693e-05 0)
(0.000890285046869 -4.63609861393e-05 0)
(0.000922618605324 -4.59953590269e-05 0)
(0.000954414575412 -4.50309599282e-05 0)
(0.000985252887823 -4.3432332031e-05 0)
(0.00101469659364 -4.11798876625e-05 0)
(0.00104230293475 -3.82714101957e-05 0)
(0.00106763523942 -3.47230617229e-05 0)
(0.00109027534893 -3.05701101801e-05 0)
(0.00110983637798 -2.58675440464e-05 0)
(0.0011259756465 -2.06905034313e-05 0)
(0.00113840745978 -1.51339406773e-05 0)
(0.00114691494067 -9.31039354158e-06 0)
(0.00115135949599 -3.34488573424e-06 0)
(0.00115168624437 2.63289949876e-06 0)
(0.00114792425135 8.49762923911e-06 0)
(0.00114018151393 1.413639956e-05 0)
(0.00112863571527 1.94543199117e-05 0)
(0.00111352248829 2.43766872553e-05 0)
(0.00109512317115 2.88478480156e-05 0)
(0.00107375367513 3.2827938187e-05 0)
(0.00104975524924 3.62891618767e-05 0)
(0.00102348706511 3.92128990221e-05 0)
(0.000995320024126 4.15882080821e-05 0)
(0.00096563103972 4.34117155158e-05 0)
(0.000934797146855 4.46885229325e-05 0)
(0.000903189056176 4.54335200279e-05 0)
(0.000871164138814 4.56724008301e-05 0)
(0.000839059194473 4.54418068154e-05 0)
(0.000807183600144 4.4788319745e-05 0)
(0.00077581349569 4.37663682693e-05 0)
(0.000745187546483 4.24353753667e-05 0)
(0.000715504595414 4.08565999246e-05 0)
(0.000686923254041 3.90901175795e-05 0)
(0.000659563251312 3.71922823437e-05 0)
(0.000633508197753 3.521386362e-05 0)
(0.000608809346045 3.31989094833e-05 0)
(0.000585489925553 3.11842763267e-05 0)
(0.000563549677855 2.91996987552e-05 0)
(0.000542969298112 2.72682483966e-05 0)
(0.000523714573201 2.54070356692e-05 0)
(0.000505740087471 2.36280313022e-05 0)
(0.000488992433363 2.19389144609e-05 0)
(0.000473412914045 2.03438837443e-05 0)
(0.000458939759571 1.88443927768e-05 0)
(0.000445509899041 1.74397914123e-05 0)
(0.000433060342033 1.61278674838e-05 0)
(0.000421529225915 1.49052926975e-05 0)
(0.000410856584239 1.37679815279e-05 0)
(0.000400984886995 1.27113741967e-05 0)
(0.000391859397654 1.17306556115e-05 0)
(0.00038342838554 1.08209215318e-05 0)
(0.000375643225697 9.97730236391e-06 0)
(0.000368458412605 9.19505357271e-06 0)
(0.000361831508725 8.46962055361e-06 0)
(0.000355723044293 7.79668447488e-06 0)
(0.000350096380708 7.17219471099e-06 0)
(0.000344917546446 6.5923925294e-06 0)
(0.000340155051425 6.05383020625e-06 0)
(0.000335779683144 5.55338922929e-06 0)
(0.000331764285569 5.08830118571e-06 0)
(0.000328083519602 4.65617487323e-06 0)
(0.000324713601952 4.25503356422e-06 0)
(0.000321632017365 3.8833667915e-06 0)
(0.000318817197453 3.54020191948e-06 0)
(0.000316248158138 3.22520172237e-06 0)
(0.00031390408745 2.93879548593e-06 0)
(0.00031176387723 2.68235214112e-06 0)
(0.000309805598474 2.45840414963e-06 0)
(0.000308005935005 2.27092787324e-06 0)
(0.0003063396224 2.12567490152e-06 0)
(0.000304779004932 2.0305151822e-06 0)
(0.0003032939531 1.99566077341e-06 0)
(0.000301852632112 2.03338936228e-06 0)
(0.000300424052837 2.15619403962e-06 0)
(0.000298984045278 2.37027273882e-06 0)
(0.000297525990937 2.6546637918e-06 0)
(0.000296068891337 2.89988820356e-06 0)
(0.00122193586069 0.00022128432238 0)
(0.00125344129042 0.000382626825923 0)
(0.00125121834973 0.000395938988998 0)
(0.00121370806968 0.000355915584311 0)
(0.00115593408104 0.000303925863377 0)
(0.00109029655913 0.000254479029006 0)
(0.00102426378373 0.000211731569363 0)
(0.000961790917951 0.000176098227318 0)
(0.000904698272167 0.000146781472805 0)
(0.000853602191643 0.00012271609535 0)
(0.000808479979366 0.000102898849564 0)
(0.000768996007782 8.64821205128e-05 0)
(0.000734683432451 7.27809386802e-05 0)
(0.000705041847959 6.12519689369e-05 0)
(0.000679587201974 5.14668139054e-05 0)
(0.000657875168892 4.30874550995e-05 0)
(0.000639510129759 3.58459637122e-05 0)
(0.000624146618224 2.95285090312e-05 0)
(0.000611487052156 2.3963027508e-05 0)
(0.000601277840562 1.90098034788e-05 0)
(0.000593304979652 1.45542921897e-05 0)
(0.000587389706447 1.05016434066e-05 0)
(0.00058338447724 6.77250736745e-06 0)
(0.000581169374669 3.2998077002e-06 0)
(0.000580648960789 2.62471016294e-08 0)
(0.000581749548629 -3.09762599498e-06 0)
(0.000584416842824 -6.11490963797e-06 0)
(0.00058861389704 -9.06351393265e-06 0)
(0.000594319330646 -1.19770502382e-05 0)
(0.000601525741838 -1.48854885996e-05 0)
(0.000610238257999 -1.78156164012e-05 0)
(0.000620473163249 -2.07913173938e-05 0)
(0.000632256541477 -2.38336797764e-05 0)
(0.000645622870322 -2.69609342586e-05 0)
(0.000660613497756 -3.01882165841e-05 0)
(0.00067727492843 -3.35271450707e-05 0)
(0.000695656842529 -3.69852016946e-05 0)
(0.000715809766531 -4.05649071823e-05 0)
(0.000737782314664 -4.42627866675e-05 0)
(0.000761617924053 -4.8068135599e-05 0)
(0.000787351018447 -5.19616165008e-05 0)
(0.000815002558422 -5.59137486718e-05 0)
(0.000844574973896 -5.98833945176e-05 0)
(0.000876046531243 -6.3816397351e-05 0)
(0.000909365264481 -6.7644579831e-05 0)
(0.000944442697216 -7.12853598502e-05 0)
(0.000981147693111 -7.46422641528e-05 0)
(0.0010193008842 -7.76065988897e-05 0)
(0.00105867021628 -8.00604504872e-05 0)
(0.00109896819029 -8.1881031633e-05 0)
(0.00113985133953 -8.29461712019e-05 0)
(0.00118092234761 -8.31405209508e-05 0)
(0.00122173499048 -8.23618894779e-05 0)
(0.00126180181847 -8.05270872104e-05 0)
(0.00130060424869 -7.75768052103e-05 0)
(0.00133760457891 -7.3479309266e-05 0)
(0.00137225939096 -6.82330044575e-05 0)
(0.00140403386387 -6.18681149106e-05 0)
(0.00143241662115 -5.44478042036e-05 0)
(0.001456934867 -4.60690193119e-05 0)
(0.00147716967333 -3.68630146713e-05 0)
(0.00149277117474 -2.69946759645e-05 0)
(0.001503472853 -1.66587717336e-05 0)
(0.00150910318075 -6.07136886991e-06 0)
(0.00150959243196 4.54338049699e-06 0)
(0.00150497313773 1.49684093045e-05 0)
(0.00149537412696 2.50073194542e-05 0)
(0.00148100943367 3.44938240179e-05 0)
(0.0014621641999 4.32955590105e-05 0)
(0.00143918001525 5.13123792965e-05 0)
(0.00141244168132 5.84711274193e-05 0)
(0.00138236628184 6.4719681112e-05 0)
(0.00134939434614 7.00223784537e-05 0)
(0.00131398232865 7.43576647976e-05 0)
(0.00127659553389 7.7717917441e-05 0)
(0.00123770075923 8.01108725578e-05 0)
(0.00119775823152 8.15616797938e-05 0)
(0.00115721285081 8.21144391687e-05 0)
(0.00111648519652 8.18322778349e-05 0)
(0.00107596303904 8.07955231927e-05 0)
(0.00103599415228 7.90980914737e-05 0)
(0.000996881064624 7.6842637648e-05 0)
(0.000958878101978 7.41352132294e-05 0)
(0.000922190761152 7.10801612594e-05 0)
(0.000886977182391 6.77758072117e-05 0)
(0.00085335130808 6.43112650231e-05 0)
(0.000821387232406 6.07644440737e-05 0)
(0.000791124249103 5.7201163064e-05 0)
(0.000762572165079 5.36751688247e-05 0)
(0.000735716538492 5.02288158877e-05 0)
(0.000710523597944 4.68941696402e-05 0)
(0.00068694468961 4.36943308534e-05 0)
(0.000664920173694 4.06448266304e-05 0)
(0.000644382747925 3.77549594979e-05 0)
(0.000625260215039 3.5029047392e-05 0)
(0.000607477735951 3.24675187706e-05 0)
(0.000590959623762 3.00678503423e-05 0)
(0.000575630739119 2.78253497364e-05 0)
(0.000561417547209 2.57337949129e-05 0)
(0.000548248893021 2.3785946491e-05 0)
(0.000536056545911 2.1973951234e-05 0)
(0.000524775558087 2.02896544447e-05 0)
(0.000514344474992 1.87248381042e-05 0)
(0.000504705429285 1.72713995247e-05 0)
(0.000495804144276 1.59214836696e-05 0)
(0.000487589867507 1.46675801742e-05 0)
(0.000480015250604 1.35025947298e-05 0)
(0.000473036187558 1.24199028639e-05 0)
(0.000466611620195 1.14133933207e-05 0)
(0.000460703316656 1.04775072318e-05 0)
(0.000455275626139 9.60727900791e-06 0)
(0.000450295211069 8.79838445426e-06 0)
(0.00044573075604 8.04720184265e-06 0)
(0.000441552651619 7.35089168494e-06 0)
(0.000437732650456 6.7075013979e-06 0)
(0.000434243493624 6.11610095105e-06 0)
(0.000431058507352 5.57695515413e-06 0)
(0.000428151175676 5.09173578073e-06 0)
(0.000425494705113 4.66377080069e-06 0)
(0.000423061616798 4.29831361868e-06 0)
(0.000420823435201 4.00278370308e-06 0)
(0.000418750598799 3.78686044336e-06 0)
(0.000416812807131 3.66215921365e-06 0)
(0.000414980145015 3.64087443396e-06 0)
(0.00041322545401 3.7319799944e-06 0)
(0.000411528271301 3.93167807906e-06 0)
(0.000409878915774 4.20066938956e-06 0)
(0.000408273167533 4.41673131628e-06 0)
(0.00121695181783 0.000182396650851 0)
(0.00124918118294 0.000357779723368 0)
(0.00126591510209 0.000406275139762 0)
(0.00125633847841 0.000392666362401 0)
(0.00122622423584 0.000355063340642 0)
(0.0011838782345 0.000311325098762 0)
(0.00113584520712 0.000268951325983 0)
(0.00108649536143 0.000230701205677 0)
(0.00103851182355 0.000197254701503 0)
(0.000993422335945 0.000168428457971 0)
(0.000952007892251 0.000143723165777 0)
(0.000914585282456 0.000122564408076 0)
(0.000881193508958 0.00010440302173 0)
(0.000851713495648 8.87515047053e-05 0)
(0.000825943429676 7.51920101871e-05 0)
(0.000803645272209 6.33724683704e-05 0)
(0.000784572815956 5.29984635734e-05 0)
(0.000768488071568 4.38242814075e-05 0)
(0.000755170356563 3.56445509133e-05 0)
(0.000744420881586 2.82869795666e-05 0)
(0.000736064606954 2.16062626084e-05 0)
(0.000729950486196 1.54790757857e-05 0)
(0.000725950793928 9.80000301407e-06 0)
(0.000723959968134 4.47824454569e-06 0)
(0.000723893226936 -5.65033073787e-07 0)
(0.000725685108995 -5.39881674268e-06 0)
(0.000729288019079 -1.00839268465e-05 0)
(0.000734670822487 -1.46743606654e-05 0)
(0.000741817496029 -1.92183195408e-05 0)
(0.000750725820199 -2.37589659726e-05 0)
(0.000761406088295 -2.83349368072e-05 0)
(0.000773879796713 -3.2980626078e-05 0)
(0.00078817827134 -3.77262408718e-05 0)
(0.000804341176812 -4.25976254088e-05 0)
(0.000822414847632 -4.76158420178e-05 0)
(0.000842450372967 -5.27964936752e-05 0)
(0.000864501360622 -5.814877177e-05 0)
(0.000888621301135 -6.36742165476e-05 0)
(0.00091486045151 -6.93651877636e-05 0)
(0.000943262161951 -7.52030622754e-05 0)
(0.000973858580669 -8.11562057881e-05 0)
(0.00100666569515 -8.71778105163e-05 0)
(0.00104167770719 -9.32037496019e-05 0)
(0.00107886079756 -9.9150671156e-05 0)
(0.00111814641838 -0.000104914632066 0)
(0.00115942435596 -0.00011037063997 0)
(0.00120253593172 -0.000115373507179 0)
(0.00124726783721 -0.000119760393007 0)
(0.00129334720992 -0.000123355290688 0)
(0.0013404386132 -0.000125975487434 0)
(0.00138814354986 -0.000127439709728 0)
(0.00143600298841 -0.000127577328118 0)
(0.0014835031182 -0.00012623774602 0)
(0.0015300842238 -0.000123299049016 0)
(0.00157515226587 -0.000118675196278 0)
(0.00161809256601 -0.000112321427424 0)
(0.00165828495399 -0.000104237966268 0)
(0.0016951198127 -9.44723687709e-05 0)
(0.00172801458508 -8.31209714547e-05 0)
(0.00175643048534 -7.03299004603e-05 0)
(0.00177988939001 -5.62957610474e-05 0)
(0.00179799091827 -4.1264893108e-05 0)
(0.00181042900873 -2.55282769888e-05 0)
(0.00181700587597 -9.40903367604e-06 0)
(0.00181764035858 6.7573145921e-06 0)
(0.0018123685824 2.26455276024e-05 0)
(0.00180133691293 3.79608439539e-05 0)
(0.00178478884525 5.24530060795e-05 0)
(0.00176304844315 6.59219442953e-05 0)
(0.00173650336926 7.82151730057e-05 0)
(0.00170558998291 8.92199665042e-05 0)
(0.00167078142834 9.88547036933e-05 0)
(0.001632578188 0.000107062437559 0)
(0.00159150001355 0.000113807704086 0)
(0.00154807819104 0.000119076405252 0)
(0.00150284730329 0.000122877962719 0)
(0.00145633599696 0.000125248346937 0)
(0.00140905679406 0.000126252288246 0)
(0.00136149554061 0.000125983279667 0)
(0.00131410142887 0.000124560745196 0)
(0.00126727856395 0.000122124587732 0)
(0.00122137982463 0.000118827947044 0)
(0.00117670340802 0.000114829273719 0)
(0.00113349206851 0.000110284783188 0)
(0.00109193475078 0.000105342094532 0)
(0.00105217011925 0.000100135505957 0)
(0.00101429140809 9.47830208719e-05 0)
(0.000978352033513 8.93849821961e-05 0)
(0.000944371489914 8.40240211588e-05 0)
(0.000912341158542 7.87659697759e-05 0)
(0.000882229768527 7.36613976777e-05 0)
(0.000853988348365 6.87474845326e-05 0)
(0.000827554585396 6.40500057881e-05 0)
(0.000802856569767 5.95852754242e-05 0)
(0.000779815939966 5.53619467138e-05 0)
(0.000758350472471 5.13826167572e-05 0)
(0.000738376172066 4.7645213266e-05 0)
(0.00071980892513 4.41441638635e-05 0)
(0.000702565778357 4.08713617859e-05 0)
(0.000686565902064 3.78169490691e-05 0)
(0.00067173129188 3.49699414778e-05 0)
(0.000657987256346 3.23187196401e-05 0)
(0.000645262731407 2.98514096448e-05 0)
(0.000633490456444 2.75561741043e-05 0)
(0.000622607040601 2.54214323119e-05 0)
(0.000612552942834 2.34360255613e-05 0)
(0.000603272384399 2.15893415288e-05 0)
(0.000594713208378 1.98714095734e-05 0)
(0.000586826697334 1.82729772937e-05 0)
(0.00057956735714 1.67855773455e-05 0)
(0.000572892672532 1.54015926806e-05 0)
(0.000566762837919 1.41143276531e-05 0)
(0.000561140465457 1.29180920509e-05 0)
(0.000555990271544 1.18083046387e-05 0)
(0.000551278742819 1.07816222334e-05 0)
(0.000546973783898 9.83609898565e-06 0)
(0.000543044351942 8.97137780259e-06 0)
(0.000539460088661 8.18890998548e-06 0)
(0.000536190969727 7.49218751764e-06 0)
(0.000533207006588 6.88694939268e-06 0)
(0.000530478058304 6.38127854266e-06 0)
(0.000527973842758 5.98541808278e-06 0)
(0.000525664274381 5.71096208935e-06 0)
(0.000523520279801 5.56872883911e-06 0)
(0.000521515170057 5.56392718171e-06 0)
(0.000519626176816 5.68590790575e-06 0)
(0.000517833939455 5.88803351378e-06 0)
(0.000516113598396 6.05545733642e-06 0)
(0.00121287762979 0.000152567210431 0)
(0.00124187321328 0.000326384236232 0)
(0.00126616562253 0.000396644325295 0)
(0.00127280945372 0.000405229994566 0)
(0.00126205293123 0.000383370497735 0)
(0.00123852790273 0.00034888899533 0)
(0.00120706286703 0.000310885516141 0)
(0.001171483414 0.000273696337804 0)
(0.00113451941296 0.000239207131712 0)
(0.00109800752196 0.000208077429564 0)
(0.00106312488432 0.000180371298335 0)
(0.00103058435955 0.00015587943238 0)
(0.00100078171883 0.000134282433258 0)
(0.000973901688541 0.000115232157554 0)
(0.000949992486092 9.83906455248e-05 0)
(0.000929017374559 8.34471206089e-05 0)
(0.000910889871407 7.01237879406e-05 0)
(0.000895497504009 5.81760844576e-05 0)
(0.000882717621398 4.7390359339e-05 0)
(0.00087242773956 3.75805398376e-05 0)
(0.000864512151043 2.858457518e-05 0)
(0.000858865999227 2.02610430856e-05 0)
(0.000855397644624 1.24860872867e-05 0)
(0.000854029890051 5.15074255584e-06 0)
(0.000854700450315 -1.84135118546e-06 0)
(0.000857361920536 -8.57585503727e-06 0)
(0.000861981416442 -1.51293018614e-05 0)
(0.000868540001871 -2.15703850554e-05 0)
(0.000877031962803 -2.79609434398e-05 0)
(0.000887463957141 -3.43566775742e-05 0)
(0.000899854049791 -4.08076059794e-05 0)
(0.000914230623069 -4.73582614285e-05 0)
(0.000930631137099 -5.40476194799e-05 0)
(0.000949100701982 -6.0908744499e-05 0)
(0.000969690412165 -6.79681327759e-05 0)
(0.00099245538347 -7.52447292482e-05 0)
(0.00101745242458 -8.27485947393e-05 0)
(0.0010447372683 -9.0479206786e-05 0)
(0.00107436128438 -9.84233911944e-05 0)
(0.00110636759762 -0.000106552906919 0)
(0.00114078654413 -0.00011482174681 0)
(0.00117763041955 -0.000123163274724 0)
(0.00121688750981 -0.000131487396726 0)
(0.00125851545273 -0.00013967805893 0)
(0.0013024340626 -0.000147591468046 0)
(0.00134851786232 -0.000155055524882 0)
(0.00139658870605 -0.000161871015015 0)
(0.0014464090266 -0.000167815073509 0)
(0.00149767638111 -0.000172647288344 0)
(0.00155002005252 -0.000176118503946 0)
(0.00160300044498 -0.000177981950579 0)
(0.001656111847 -0.000178005845444 0)
(0.00170878882377 -0.000175986243277 0)
(0.00176041609676 -0.000171758830233 0)
(0.00181034139013 -0.00016520864414 0)
(0.00185789049626 -0.000156277275537 0)
(0.0019023837934 -0.000144967691733 0)
(0.00194315357238 -0.000131347171245 0)
(0.00197956168702 -0.000115548951418 0)
(0.00201101726283 -9.77733008057e-05 0)
(0.00203699462339 -7.82885427153e-05 0)
(0.00205705192289 -5.74308720466e-05 0)
(0.00207085015646 -3.55985739062e-05 0)
(0.00207816992313 -1.32353432871e-05 0)
(0.00207892167247 9.19739828814e-06 0)
(0.00207314651158 3.1252366514e-05 0)
(0.0020610077107 5.25244424168e-05 0)
(0.00204277510586 7.26700314888e-05 0)
(0.00201880559596 9.14147698143e-05 0)
(0.00198952361395 0.000108549333283 0)
(0.00195540478269 0.000123917947952 0)
(0.00191696365109 0.000137406329858 0)
(0.00187474439673 0.000148933227739 0)
(0.0018293129277 0.000158446481858 0)
(0.00178124913237 0.000165923174976 0)
(0.00173113829482 0.000171372855175 0)
(0.00167956105981 0.000174841941535 0)
(0.00162708200436 0.000176416907804 0)
(0.00157423759872 0.000176224285925 0)
(0.0015215247604 0.000174426667169 0)
(0.00146939120602 0.00017121507489 0)
(0.00141822848937 0.000166798917261 0)
(0.00136836815037 0.000161395071724 0)
(0.00132008093759 0.000155217560658 0)
(0.00127357870787 0.000148468897352 0)
(0.00122901839677 0.000141333687146 0)
(0.00118650738802 0.000133974608256 0)
(0.00114610965449 0.000126530557481 0)
(0.00110785215037 0.000119116552674 0)
(0.0010717310647 0.000111824917515 0)
(0.00103771767229 0.000104727296401 0)
(0.0010057636245 9.78771184248e-05 0)
(0.000975805604911 9.13122186585e-05 0)
(0.000947769333999 8.50574119161e-05 0)
(0.000921572945969 7.91268887057e-05 0)