# Region type : patch outlet
# Faces  :    1
# Area   :    1.000000e-02
# Time        	sum(phi)
0             
