/*--------------------------------*- C++ -*----------------------------------*\
  =========                 |
  \\      /  F ield         | OpenFOAM: The Open Source CFD Toolbox
   \\    /   O peration     | Website:  https://openfoam.org
    \\  /    A nd           | Version:  7
     \\/     M anipulation  |
\*---------------------------------------------------------------------------*/
FoamFile
{
    version     2.0;
    format      ascii;
    class       volScalarField;
    location    "2040";
    object      Ci;
}
// * * * * * * * * * * * * * * * * * * * * * * * * * * * * * * * * * * * * * //

dimensions      [0 -3 0 0 1 0 0];

internalField   nonuniform List<scalar> 
8192
(
9.99999999538
10.0000000158
10.0000000414
10.0000000748
10.0000001221
10.0000001808
10.0000002426
10.0000003067
10.0000003727
10.0000004403
10.0000005088
10.0000005778
10.0000006467
10.0000007152
10.0000007827
10.000000849
10.0000009135
10.0000009758
10.0000010352
10.0000010904
10.0000011397
10.0000011823
10.0000012182
10.0000012471
10.0000012689
10.000001283
10.0000012894
10.0000012874
10.0000012767
10.0000012566
10.000001227
10.0000011871
10.0000011368
10.0000010748
10.0000010005
10.0000009132
10.000000813
10.0000006994
10.0000005728
10.0000004328
10.00000028
10.0000001144
9.99999993734
9.99999974936
9.99999955281
9.99999934898
9.99999914123
9.9999989315
9.99999872384
9.99999852044
9.99999832544
9.99999814063
9.99999796967
9.99999781347
9.99999767479
9.99999755352
9.99999745162
9.99999736828
9.99999730518
9.99999726149
9.99999723925
9.99999723822
9.99999726118
9.99999730844
9.99999738302
9.99999748491
9.99999761618
9.99999777536
9.99999796272
9.99999817505
9.99999841118
9.99999866698
9.99999894088
9.9999992288
9.9999995294
9.99999983899
10.0000001564
10.0000004782
10.0000008033
10.0000011282
10.000001452
10.0000017715
10.0000020859
10.0000023927
10.0000026913
10.00000298
10.0000032586
10.0000035259
10.0000037822
10.000004027
10.0000042609
10.0000044838
10.0000046968
10.0000049002
10.0000050953
10.0000052822
10.0000054618
10.0000056341
10.0000057999
10.0000059593
10.0000061127
10.0000062604
10.0000064026
10.0000065393
10.0000066707
10.0000067968
10.0000069178
10.0000070336
10.0000071443
10.00000725
10.0000073508
10.0000074469
10.0000075385
10.0000076256
10.0000077087
10.0000077879
10.0000078636
10.0000079362
10.000008006
10.0000080735
10.0000081391
10.0000082032
10.0000082656
10.0000083262
10.000008384
10.0000084375
10.0000084834
10.0000085126
10.0000000063
10.000000024
10.0000000445
10.0000000709
10.0000001054
10.0000001484
10.0000001984
10.0000002543
10.0000003146
10.0000003785
10.0000004448
10.000000513
10.0000005823
10.0000006523
10.0000007225
10.0000007923
10.0000008614
10.0000009291
10.0000009947
10.0000010566
10.0000011113
10.0000011596
10.0000012017
10.0000012376
10.0000012673
10.0000012902
10.0000013063
10.0000013148
10.0000013154
10.0000013076
10.000001291
10.000001265
10.0000012293
10.0000011825
10.0000011226
10.0000010494
10.0000009632
10.0000008632
10.0000007493
10.0000006208
10.0000004778
10.0000003201
10.0000001486
9.99999996385
9.99999976788
9.99999956233
9.99999935047
9.99999913483
9.99999891946
9.99999870722
9.99999850222
9.9999983069
9.99999812474
9.99999795724
9.99999780697
9.99999767451
9.99999756177
9.99999746889
9.99999739775
9.99999734864
9.99999732378
9.99999732377
9.99999735087
9.99999740524
9.99999748817
9.99999759833
9.99999773523
9.9999978959
9.99999807862
9.99999827991
9.99999849821
9.99999873072
9.99999897669
9.99999923412
9.99999950271
9.99999978065
10.0000000675
10.0000003611
10.0000006607
10.0000009638
10.0000012693
10.0000015748
10.000001879
10.0000021797
10.0000024759
10.0000027657
10.0000030486
10.0000033231
10.0000035889
10.0000038453
10.0000040924
10.0000043298
10.0000045581
10.0000047776
10.0000049886
10.0000051908
10.0000053847
10.0000055703
10.0000057484
10.000005919
10.0000060826
10.0000062395
10.0000063898
10.0000065336
10.0000066713
10.0000068028
10.0000069283
10.0000070479
10.0000071617
10.0000072699
10.0000073727
10.0000074702
10.0000075626
10.0000076503
10.0000077335
10.0000078126
10.0000078878
10.0000079597
10.0000080286
10.000008095
10.0000081594
10.0000082222
10.0000082834
10.000008343
10.0000084003
10.0000084539
10.000008503
10.0000085338
10.000000008
10.0000000253
10.0000000445
10.0000000683
10.0000000981
10.0000001341
10.0000001761
10.0000002238
10.0000002763
10.0000003328
10.0000003925
10.0000004547
10.0000005188
10.0000005844
10.0000006509
10.0000007181
10.0000007856
10.000000853
10.0000009199
10.0000009858
10.0000010498
10.0000011114
10.0000011703
10.000001226
10.0000012781
10.0000013259
10.0000013691
10.0000014069
10.0000014387
10.0000014637
10.0000014814
10.0000014908
10.0000014914
10.0000014822
10.0000014623
10.0000014309
10.0000013876
10.0000013315
10.0000012626
10.0000011803
10.0000010849
10.0000009764
10.0000008561
10.0000007243
10.0000005833
10.0000004342
10.0000002796
10.000000121
9.99999996134
9.99999980161
9.99999964445
9.99999949021
9.99999934086
9.99999919598
9.99999905705
9.99999892323
9.99999879605
9.99999867489
9.99999856194
9.99999845735
9.99999836425
9.99999828356
9.99999821891
9.99999817129
9.9999981438
9.99999813645
9.99999815107
9.99999818651
9.99999824374
9.99999832146
9.99999842085
9.9999985413
9.99999868446
9.99999884998
9.9999990392
9.99999925113
9.99999948597
9.99999974159
10.0000000169
10.0000003087
10.0000006149
10.0000009319
10.0000012572
10.0000015871
10.000001919
10.0000022498
10.0000025772
10.0000028985
10.0000032123
10.0000035166
10.0000038104
10.0000040926
10.0000043625
10.0000046201
10.0000048662
10.0000051013
10.0000053259
10.0000055402
10.0000057447
10.0000059394
10.0000061248
10.0000063008
10.0000064679
10.0000066261
10.0000067758
10.0000069171
10.0000070503
10.0000071758
10.0000072937
10.0000074045
10.0000075084
10.0000076059
10.0000076973
10.0000077831
10.0000078636
10.0000079394
10.0000080108
10.0000080785
10.0000081429
10.0000082046
10.000008264
10.0000083215
10.0000083772
10.000008431
10.0000084828
10.0000085305
10.000008581
10.0000085928
10.0000000078
10.0000000264
10.0000000459
10.0000000701
10.0000000996
10.000000134
10.0000001727
10.000000216
10.0000002639
10.0000003162
10.0000003725
10.0000004326
10.000000496
10.0000005627
10.0000006321
10.0000007041
10.0000007783
10.0000008544
10.000000932
10.0000010107
10.00000109
10.0000011696
10.000001249
10.0000013277
10.0000014052
10.0000014809
10.0000015541
10.0000016243
10.0000016907
10.0000017526
10.0000018092
10.0000018598
10.0000019036
10.0000019399
10.0000019678
10.0000019869
10.0000019964
10.0000019958
10.0000019848
10.0000019631
10.0000019308
10.0000018878
10.0000018346
10.0000017714
10.0000016992
10.0000016184
10.0000015299
10.0000014341
10.0000013319
10.0000012234
10.0000011093
10.0000009893
10.0000008639
10.0000007328
10.0000005964
10.0000004546
10.0000003083
10.0000001581
10.0000000055
9.99999985202
9.99999970013
9.99999955202
9.99999941064
9.99999927826
9.99999915748
9.99999904987
9.99999895714
9.99999888012
9.99999882021
9.99999877847
9.99999875706
9.99999875798
9.99999878407
9.99999883753
9.99999892079
9.99999903509
9.99999918143
9.99999935945
9.99999956845
9.99999980646
10.0000000713
10.0000003599
10.0000006691
10.000000995
10.0000013342
10.0000016825
10.0000020366
10.0000023927
10.0000027476
10.0000030983
10.0000034422
10.000003777
10.0000041009
10.0000044121
10.0000047101
10.0000049942
10.0000052644
10.0000055208
10.0000057633
10.0000059923
10.000006208
10.0000064106
10.0000066005
10.0000067781
10.0000069437
10.0000070979
10.000007241
10.0000073737
10.0000074964
10.0000076097
10.0000077143
10.0000078108
10.0000078996
10.0000079817
10.0000080574
10.0000081276
10.0000081928
10.0000082537
10.0000083111
10.0000083654
10.0000084174
10.0000084673
10.0000085157
10.0000085616
10.0000086068
10.0000086439
10.0000087011
10.0000086629
10.0000000082
10.0000000287
10.0000000504
10.0000000761
10.0000001068
10.0000001414
10.0000001796
10.0000002208
10.0000002659
10.0000003152
10.000000369
10.0000004272
10.00000049
10.0000005573
10.0000006292
10.0000007053
10.0000007856
10.0000008697
10.0000009572
10.0000010478
10.0000011411
10.0000012364
10.0000013334
10.0000014314
10.0000015299
10.0000016282
10.0000017258
10.0000018219
10.0000019158
10.0000020069
10.0000020942
10.0000021772
10.0000022548
10.0000023268
10.0000023918
10.0000024497
10.0000024992
10.0000025403
10.0000025719
10.0000025941
10.0000026059
10.0000026074
10.0000025982
10.0000025783
10.0000025475
10.0000025059
10.0000024535
10.0000023904
10.0000023168
10.0000022326
10.0000021383
10.0000020338
10.0000019196
10.0000017959
10.0000016634
10.0000015224
10.0000013741
10.0000012194
10.0000010599
10.0000008969
10.0000007329
10.0000005696
10.0000004096
10.0000002546
10.0000001066
9.9999999667
9.99999983612
9.99999971536
9.99999960559
9.99999950796
9.9999994248
9.99999935864
9.99999931287
9.99999929058
9.99999929503
9.99999932864
9.99999939352
9.9999994907
9.99999962074
9.99999978316
9.99999997702
10.0000002005
10.0000004514
10.0000007268
10.0000010237
10.0000013384
10.0000016675
10.0000020071
10.0000023537
10.0000027037
10.0000030538
10.0000034008
10.0000037422
10.0000040753
10.0000043983
10.0000047093
10.0000050073
10.0000052913
10.0000055608
10.0000058154
10.000006055
10.0000062796
10.0000064894
10.0000066846
10.0000068657
10.0000070332
10.0000071876
10.0000073295
10.0000074597
10.0000075789
10.0000076878
10.0000077873
10.000007878
10.000007961
10.0000080368
10.0000081064
10.0000081706
10.0000082301
10.0000082857
10.0000083383
10.0000083884
10.0000084366
10.0000084838
10.0000085281
10.000008575
10.0000086069
10.0000086791
10.0000086206
10.0000000081
10.0000000307
10.0000000544
10.0000000825
10.0000001155
10.0000001518
10.0000001907
10.0000002323
10.0000002763
10.000000324
10.000000376
10.0000004328
10.0000004946
10.0000005616
10.000000634
10.0000007117
10.0000007947
10.0000008826
10.0000009753
10.0000010722
10.000001173
10.0000012771
10.0000013839
10.0000014929
10.0000016034
10.0000017147
10.000001826
10.0000019369
10.000002046
10.0000021533
10.0000022571
10.0000023578
10.0000024528
10.0000025434
10.0000026263
10.0000027036
10.000002771
10.0000028316
10.0000028807
10.0000029216
10.00000295
10.0000029685
10.0000029742
10.0000029688
10.0000029507
10.0000029206
10.0000028783
10.0000028241
10.0000027582
10.0000026812
10.0000025934
10.0000024955
10.0000023882
10.0000022719
10.0000021477
10.0000020161
10.0000018782
10.000001735
10.0000015878
10.0000014382
10.0000012879
10.0000011387
10.0000009925
10.000000851
10.0000007154
10.0000005865
10.0000004645
10.0000003495
10.0000002416
10.0000001416
10.0000000511
9.99999997239
9.99999990837
9.99999986199
9.99999983621
9.99999983347
9.99999985592
9.99999990497
9.99999998174
10.0000000866
10.0000002195
10.00000038
10.0000005669
10.0000007788
10.0000010135
10.0000012688
10.0000015418
10.0000018297
10.0000021293
10.0000024375
10.0000027512
10.0000030674
10.0000033833
10.0000036961
10.0000040036
10.0000043035
10.0000045941
10.0000048739
10.0000051417
10.0000053967
10.0000056383
10.000005866
10.0000060797
10.0000062795
10.0000064655
10.0000066381
10.0000067977
10.000006945
10.0000070805
10.0000072051
10.0000073193
10.0000074242
10.0000075204
10.0000076088
10.0000076903
10.0000077657
10.0000078359
10.0000079016
10.0000079637
10.0000080229
10.0000080802
10.0000081355
10.0000081911
10.0000082426
10.0000083011
10.0000083382
10.0000084273
10.0000083849
10.0000000082
10.0000000328
10.0000000586
10.0000000888
10.0000001238
10.0000001619
10.0000002021
10.0000002443
10.000000289
10.0000003361
10.0000003873
10.0000004431
10.0000005041
10.0000005705
10.0000006425
10.0000007201
10.0000008033
10.0000008918
10.0000009855
10.0000010838
10.0000011864
10.0000012927
10.0000014021
10.0000015141
10.0000016276
10.0000017426
10.0000018574
10.0000019723
10.000002085
10.0000021969
10.0000023037
10.0000024095
10.0000025066
10.0000026029
10.0000026866
10.0000027702
10.000002837
10.0000029041
10.0000029516
10.0000029985
10.0000030251
10.0000030487
10.0000030535
10.0000030517
10.0000030342
10.0000030072
10.0000029671
10.0000029165
10.0000028549
10.0000027831
10.0000027017
10.0000026115
10.0000025131
10.0000024071
10.0000022942
10.0000021751
10.0000020507
10.0000019218
10.0000017896
10.0000016556
10.0000015214
10.0000013888
10.0000012596
10.0000011355
10.0000010174
10.000000906
10.0000008013
10.000000703
10.0000006111
10.000000526
10.0000004492
10.0000003825
10.0000003284
10.0000002893
10.0000002674
10.0000002645
10.0000002819
10.0000003203
10.0000003804
10.0000004623
10.0000005662
10.0000006915
10.0000008379
10.0000010045
10.00000119
10.000001393
10.0000016119
10.0000018445
10.0000020887
10.0000023422
10.0000026028
10.0000028679
10.0000031353
10.0000034028
10.0000036682
10.0000039296
10.0000041853
10.0000044338
10.0000046738
10.0000049042
10.0000051243
10.0000053335
10.0000055314
10.0000057179
10.0000058929
10.0000060568
10.0000062098
10.0000063523
10.0000064849
10.0000066081
10.0000067227
10.0000068294
10.0000069289
10.000007022
10.0000071094
10.0000071919
10.0000072703
10.0000073452
10.0000074176
10.0000074878
10.0000075572
10.0000076248
10.0000076945
10.0000077588
10.0000078342
10.0000078844
10.0000079895
10.0000079797
10.0000000078
10.000000034
10.0000000614
10.0000000937
10.0000001309
10.000000171
10.0000002127
10.000000256
10.0000003013
10.0000003493
10.0000004003
10.0000004559
10.0000005165
10.0000005826
10.0000006541
10.0000007312
10.0000008138
10.0000009016
10.0000009944
10.0000010917
10.0000011932
10.0000012983
10.0000014062
10.0000015167
10.0000016284
10.0000017418
10.000001854
10.0000019676
10.0000020765
10.0000021878
10.000002289
10.0000023957
10.0000024844
10.0000025845
10.000002656
10.0000027473
10.0000027979
10.000002877
10.0000029055
10.0000029672
10.0000029753
10.0000030136
10.0000030044
10.0000030147
10.0000029905
10.0000029723
10.0000029327
10.0000028895
10.0000028335
10.0000027699
10.0000026975
10.0000026172
10.0000025296
10.000002435
10.0000023338
10.0000022265
10.0000021138
10.0000019964
10.0000018754
10.0000017523
10.0000016287
10.0000015067
10.0000013882
10.0000012749
10.0000011679
10.0000010677
10.0000009743
10.0000008873
10.0000008065
10.0000007327
10.0000006672
10.0000006125
10.0000005711
10.000000545
10.0000005361
10.0000005454
10.0000005734
10.00000062
10.0000006849
10.0000007674
10.000000867
10.0000009829
10.0000011144
10.0000012605
10.0000014201
10.0000015922
10.0000017754
10.0000019684
10.0000021697
10.0000023777
10.0000025909
10.0000028076
10.0000030263
10.0000032452
10.000003463
10.0000036782
10.0000038895
10.0000040958
10.000004296
10.0000044893
10.000004675
10.0000048527
10.000005022
10.0000051828
10.0000053352
10.0000054791
10.000005615
10.0000057432
10.000005864
10.0000059782
10.0000060861
10.0000061885
10.0000062859
10.0000063791
10.0000064686
10.0000065552
10.0000066394
10.0000067217
10.0000068032
10.0000068835
10.0000069647
10.0000070444
10.0000071286
10.0000072061
10.0000072989
10.0000073632
10.0000074842
10.0000075027
10.000000008
10.0000000354
10.000000064
10.0000000975
10.0000001362
10.0000001779
10.000000221
10.0000002654
10.0000003115
10.0000003603
10.0000004121
10.0000004678
10.0000005285
10.0000005945
10.0000006659
10.0000007427
10.0000008246
10.0000009114
10.0000010029
10.0000010986
10.0000011979
10.0000013007
10.0000014056
10.0000015134
10.000001621
10.0000017317
10.0000018383
10.0000019501
10.0000020509
10.0000021629
10.0000022517
10.0000023647
10.0000024336
10.0000025498
10.0000025901
10.0000027122
10.0000027169
10.0000028444
10.0000028128
10.000002938
10.000002879
10.0000029859
10.0000029162
10.0000029862
10.0000029216
10.0000029447
10.0000028891
10.00000287
10.0000028161
10.0000027677
10.0000027057
10.0000026384
10.0000025633
10.0000024812
10.0000023922
10.0000022964
10.0000021943
10.0000020865
10.0000019742
10.0000018586
10.0000017417
10.0000016253
10.0000015115
10.0000014018
10.0000012974
10.0000011986
10.0000011054
10.0000010175
10.0000009353
10.0000008599
10.000000794
10.0000007402
10.0000007018
10.000000681
10.0000006796
10.0000006987
10.0000007385
10.0000007983
10.0000008767
10.0000009718
10.0000010819
10.0000012047
10.0000013388
10.0000014818
10.0000016331
10.0000017924
10.0000019586
10.0000021303
10.0000023063
10.0000024855
10.0000026667
10.0000028489
10.0000030308
10.0000032115
10.0000033901
10.0000035657
10.0000037375
10.0000039047
10.0000040668
10.0000042233
10.0000043738
10.0000045182
10.0000046563
10.0000047882
10.0000049139
10.0000050338
10.000005148
10.0000052571
10.0000053615
10.0000054617
10.0000055582
10.0000056516
10.0000057424
10.0000058312
10.0000059186
10.0000060049
10.000006091
10.0000061768
10.0000062637
10.0000063504
10.0000064403
10.0000065284
10.0000066241
10.0000067109
10.0000068184
10.0000068922
10.0000070291
10.0000070621
10.0000000077
10.0000000362
10.0000000659
10.0000001005
10.0000001405
10.0000001835
10.0000002278
10.0000002731
10.0000003199
10.0000003692
10.0000004219
10.0000004781
10.0000005393
10.0000006056
10.0000006773
10.000000754
10.0000008357
10.0000009221
10.0000010125
10.000001107
10.0000012044
10.0000013054
10.0000014073
10.0000015131
10.0000016162
10.0000017256
10.0000018251
10.0000019383
10.0000020271
10.0000021472
10.0000022142
10.0000023493
10.0000023779
10.000002542
10.0000025103
10.000002722
10.0000026076
10.0000028814
10.0000026735
10.0000030054
10.0000027209
10.0000030739
10.000002765
10.0000030741
10.0000028092
10.0000030138
10.0000028357
10.00000292
10.0000028192
10.0000028152
10.0000027499
10.0000027011
10.0000026364
10.0000025664
10.0000024886
10.0000024032
10.0000023111
10.0000022121
10.000002107
10.0000019976
10.0000018856
10.0000017734
10.0000016627
10.0000015553
10.0000014517
10.0000013521
10.0000012558
10.0000011623
10.0000010725
10.0000009882
10.000000913
10.0000008513
10.0000008059
10.000000781
10.000000779
10.0000008014
10.0000008479
10.0000009171
10.0000010069
10.0000011146
10.0000012374
10.0000013721
10.0000015162
10.0000016671
10.0000018223
10.0000019803
10.0000021398
10.0000022995
10.0000024607
10.0000026224
10.0000027838
10.0000029438
10.0000031017
10.0000032567
10.0000034082
10.0000035557
10.0000036986
10.0000038367
10.0000039696
10.0000040973
10.0000042196
10.0000043366
10.0000044485
10.0000045555
10.0000046579
10.0000047561
10.0000048505
10.0000049416
10.00000503
10.0000051161
10.0000052006
10.0000052839
10.0000053667
10.0000054492
10.0000055323
10.000005616
10.0000057012
10.0000057874
10.0000058765
10.0000059661
10.000006061
10.0000061535
10.0000062571
10.0000063484
10.0000064671
10.0000065443
10.0000066959
10.0000067305
10.000000008
10.0000000371
10.0000000673
10.0000001021
10.0000001427
10.0000001867
10.000000232
10.0000002781
10.0000003257
10.0000003755
10.0000004289
10.0000004857
10.0000005474
10.0000006144
10.0000006866
10.0000007638
10.0000008456
10.0000009319
10.0000010219
10.0000011158
10.0000012119
10.0000013119
10.0000014112
10.0000015162
10.0000016147
10.0000017252
10.0000018161
10.0000019358
10.0000020072
10.0000021468
10.0000021777
10.0000023601
10.0000023142
10.0000025807
10.0000024023
10.000002814
10.0000024318
10.0000030574
10.0000024084
10.0000032873
10.0000023657
10.0000034521
10.0000023628
10.0000034901
10.0000024481
10.0000033794
10.0000026057
10.0000031762
10.0000027508
10.0000029773
10.0000028034
10.0000028291
10.0000027544
10.0000027055
10.000002639
10.0000025657
10.0000024838
10.000002394
10.0000022977
10.0000021955
10.0000020889
10.0000019802
10.0000018716
10.0000017645
10.0000016586
10.0000015527
10.0000014457
10.0000013379
10.0000012311
10.0000011288
10.0000010362
10.0000009571
10.0000008975
10.0000008622
10.0000008546
10.0000008757
10.0000009252
10.0000010008
10.0000010998
10.0000012184
10.0000013531
10.0000015
10.0000016556
10.0000018167
10.0000019805
10.0000021444
10.0000023071
10.0000024662
10.0000026224
10.0000027731
10.0000029214
10.0000030671
10.0000032094
10.0000033478
10.0000034818
10.000003611
10.000003735
10.0000038537
10.0000039671
10.0000040751
10.000004178
10.0000042759
10.0000043692
10.0000044584
10.0000045438
10.000004626
10.0000047056
10.0000047831
10.0000048591
10.0000049342
10.0000050091
10.0000050841
10.00000516
10.000005237
10.0000053159
10.0000053965
10.00000548
10.0000055654
10.0000056551
10.0000057454
10.000005843
10.000005937
10.0000060457
10.000006138
10.0000062649
10.0000063406
10.0000065049
10.0000065333
10.0000000079
10.0000000376
10.0000000685
10.0000001037
10.0000001446
10.0000001889
10.0000002348
10.0000002813
10.0000003294
10.0000003796
10.0000004335
10.0000004909
10.0000005533
10.000000621
10.0000006939
10.0000007718
10.0000008543
10.0000009411
10.0000010311
10.0000011252
10.0000012204
10.0000013205
10.0000014178
10.0000015236
10.0000016176
10.0000017316
10.0000018129
10.0000019438
10.0000019935
10.0000021632
10.0000021442
10.0000023999
10.000002242
10.0000026738
10.000002255
10.0000030133
10.0000021483
10.0000034423
10.0000019066
10.0000039483
10.0000015749
10.0000044381
10.0000012942
10.0000047278
10.0000012652
10.0000046345
10.0000016022
10.0000041611
10.0000021677
10.0000035648
10.0000026461
10.0000031297
10.0000028484
10.0000029052
10.0000028247
10.00000277
10.0000026977
10.0000026172
10.0000025301
10.0000024357
10.0000023321
10.0000022269
10.0000021254
10.0000020241
10.0000019138
10.0000017903
10.0000016563
10.0000015198
10.0000013869
10.0000012652
10.000001155
10.0000010615
10.0000009905
10.0000009469
10.0000009342
10.0000009538
10.000001005
10.0000010854
10.0000011913
10.0000013184
10.0000014625
10.0000016189
10.0000017839
10.0000019536
10.0000021248
10.0000022948
10.0000024617
10.0000026233
10.0000027795
10.0000029283
10.0000030709
10.0000032059
10.0000033367
10.0000034631
10.0000035849
10.0000037017
10.0000038133
10.0000039196
10.0000040206
10.0000041164
10.0000042071
10.0000042932
10.0000043751
10.0000044532
10.0000045281
10.0000046004
10.0000046707
10.0000047397
10.0000048081
10.0000048763
10.0000049452
10.0000050151
10.0000050868
10.0000051603
10.0000052367
10.0000053155
10.0000053981
10.0000054828
10.0000055731
10.0000056635
10.0000057632
10.0000058572
10.0000059697
10.0000060608
10.0000061941
10.000006266
10.0000064405
10.0000064599
10.0000000084
10.0000000379
10.0000000687
10.0000001036
10.0000001444
10.0000001888
10.0000002351
10.0000002821
10.0000003306
10.0000003812
10.0000004355
10.0000004934
10.0000005565
10.0000006249
10.0000006987
10.0000007775
10.0000008607
10.0000009483
10.0000010389
10.0000011335
10.0000012287
10.0000013293
10.0000014253
10.0000015324
10.0000016231
10.0000017411
10.0000018142
10.0000019565
10.0000019863
10.0000021865
10.0000021183
10.0000024515
10.0000021729
10.0000027939
10.0000020883
10.0000032852
10.0000017742
10.0000040201
10.0000011349
10.0000050696
10.0000001469
10.0000063719
9.99999899259
10.0000075905
9.99999816441
10.0000081179
9.99999828781
10.0000074677
9.99999954568
10.0000058815
10.0000012673
10.0000042943
10.0000025081
10.0000033748
10.0000029792
10.0000030429
10.0000029617
10.0000029049
10.0000028346
10.0000027316
10.0000026233
10.0000025558
10.0000025024
10.0000023689
10.0000020937
10.0000017114
10.0000013251
10.0000010269
10.000000858
10.0000007978
10.0000008005
10.0000008272
10.0000008571
10.000000887
10.0000009236
10.0000009756
10.0000010494
10.0000011471
10.000001268
10.0000014089
10.0000015655
10.0000017332
10.0000019076
10.0000020845
10.0000022608
10.0000024339
10.0000026023
10.0000027645
10.0000029201
10.0000030683
10.000003209
10.0000033422
10.0000034676
10.0000035869
10.0000037014
10.000003811
10.0000039154
10.0000040146
10.0000041084
10.0000041971
10.0000042808
10.00000436
10.0000044351
10.0000045068
10.0000045757
10.0000046424
10.0000047077
10.0000047721
10.0000048365
10.0000049014
10.0000049675
10.0000050352
10.0000051052
10.0000051776
10.0000052535
10.0000053319
10.000005415
10.0000054999
10.0000055916
10.0000056823
10.0000057843
10.0000058779
10.000005994
10.0000060832
10.0000062219
10.000006289
10.0000064716
10.0000064817
10.0000000084
10.0000000381
10.0000000694
10.0000001043
10.0000001445
10.0000001884
10.0000002344
10.0000002814
10.0000003299
10.0000003807
10.000000435
10.0000004934
10.0000005571
10.0000006264
10.0000007011
10.0000007809
10.0000008652
10.0000009539
10.0000010454
10.000001141
10.0000012367
10.0000013381
10.0000014343
10.0000015421
10.0000016322
10.0000017517
10.0000018227
10.000001969
10.0000019924
10.0000022049
10.0000021166
10.0000024877
10.0000021462
10.000002881
10.0000019862
10.0000035096
10.0000014675
10.0000045847
10.0000003341
10.0000063882
9.99999830794
10.0000091358
9.99999533023
10.0000126038
9.99999202915
10.0000156769
9.99998999832
10.0000164766
9.99999101298
10.0000138719
9.99999503925
10.0000092716
9.99999956883
10.000005477
10.0000023657
10.0000036315
10.0000032105
10.0000032932
10.0000031452
10.0000029421
10.0000030312
10.0000033486
10.0000030794
10.0000013855
9.99999829289
9.99999476492
9.9999920251
9.99999083961
9.99999126758
9.99999281194
9.99999481009
9.99999672196
9.99999825692
9.99999935057
10.0000000728
10.0000005378
10.0000008498
10.0000010829
10.0000012826
10.0000014733
10.0000016667
10.0000018667
10.0000020729
10.0000022821
10.0000024897
10.0000026907
10.0000028811
10.0000030578
10.0000032194
10.0000033658
10.0000034978
10.0000036171
10.0000037252
10.000003824
10.0000039153
10.0000040025
10.0000040864
10.0000041672
10.0000042451
10.0000043201
10.0000043925
10.0000044623
10.0000045298
10.0000045955
10.0000046596
10.0000047227
10.0000047853
10.0000048478
10.0000049111
10.0000049753
10.0000050413
10.0000051092
10.00000518
10.0000052531
10.0000053304
10.0000054098
10.0000054948
10.0000055805
10.0000056746
10.0000057655
10.0000058706
10.000005963
10.0000060831
10.0000061687
10.0000063127
10.0000063728
10.0000065625
10.0000065607
10.000000009
10.0000000382
10.0000000686
10.000000103
10.0000001425
10.0000001859
10.0000002316
10.0000002785
10.000000327
10.0000003779
10.0000004322
10.000000491
10.0000005553
10.0000006252
10.0000007009
10.0000007818
10.0000008673
10.0000009571
10.0000010499
10.0000011464
10.0000012435
10.0000013454
10.0000014432
10.0000015504
10.0000016435
10.0000017599
10.0000018374
10.0000019753
10.0000020136
10.0000022063
10.0000021492
10.0000024807
10.0000021954
10.0000028671
10.0000020447
10.0000035203
10.0000014704
10.0000047574
10.0000000385
10.0000071513
9.99999703375
10.0000115246
9.99999161965
10.0000185444
9.99998359695
10.0000275601
9.99997488761
10.0000351173
9.99997036233
10.0000356905
9.99997472909
10.0000272245
9.99998600233
10.0000155606
9.99999655844
10.0000070789
10.0000026726
10.0000039302
10.0000028294
10.0000034627
10.0000060095
10.0000054021
9.99999357285
9.99996738283
9.99993257706
9.99990036732
9.9998806926
9.99987775187
9.99988957507
9.99991042687
9.99993392929
9.99995526559
9.99997199632
9.9999837253
9.99999125148
9.99999576608
9.99999835741
9.99999982073
10.0000006579
10.0000011531
10.0000014568
10.0000016493
10.0000017786
10.0000018784
10.000001974
10.0000020827
10.0000022136
10.0000023687
10.0000025445
10.0000027344
10.0000029306
10.0000031262
10.0000033154
10.0000034941
10.0000036601
10.0000038122
10.0000039527
10.0000040819
10.0000042003
10.0000043088
10.0000044084
10.0000045001
10.000004585
10.0000046643
10.0000047391
10.0000048104
10.0000048794
10.0000049467
10.0000050138
10.0000050807
10.0000051493
10.0000052187
10.0000052916
10.0000053654
10.0000054449
10.0000055242
10.0000056119
10.0000056965
10.000005794
10.0000058818
10.0000059912
10.0000060773
10.0000062028
10.0000062769
10.0000064275
10.0000064683
10.0000066651
10.0000066332
10.000000009
10.0000000383
10.0000000689
10.0000001029
10.0000001415
10.0000001837
10.0000002283
10.0000002745
10.0000003226
10.0000003732
10.0000004275
10.0000004866
10.0000005514
10.000000622
10.0000006986
10.0000007805
10.0000008674
10.0000009584
10.0000010528
10.0000011503
10.0000012494
10.0000013515
10.0000014522
10.0000015578
10.0000016566
10.0000017667
10.0000018573
10.0000019777
10.0000020468
10.0000021954
10.0000022108
10.0000024371
10.0000023157
10.0000027526
10.0000022785
10.0000032716
10.000001893
10.000004313
10.0000006745
10.0000066035
9.99999757539
10.0000115917
9.99999069711
10.0000215894
9.99997754752
10.0000387663
9.99995719496
10.0000615485
9.9999351349
10.0000796159
9.99992593771
10.0000772064
9.9999409273
10.0000535558
9.99996802694
10.0000276857
9.99999267427
10.0000058172
10.0000016521
10.0000156576
10.000016694
9.99995121258
9.99977659525
9.99950816248
9.99921730505
9.99899017714
9.9988844778
9.99891179348
9.99904444094
9.99923528103
9.99943730758
9.99961655388
9.99975634616
9.99985460778
9.9999179359
9.99995590926
9.99997742668
9.99998919267
9.9999956124
9.99999928562
10.0000015996
10.0000032134
10.0000043985
10.0000052504
10.0000058083
10.0000061079
10.0000061976
10.0000061342
10.0000059751
10.0000057695
10.0000055549
10.0000053561
10.000005187
10.0000050529
10.0000049538
10.0000048854
10.0000048441
10.0000048257
10.0000048252
10.0000048377
10.0000048598
10.0000048886
10.0000049223
10.0000049594
10.0000049998
10.0000050423
10.000005088
10.0000051356
10.0000051874
10.0000052408
10.0000053002
10.0000053602
10.0000054286
10.0000054951
10.000005574
10.0000056459
10.0000057363
10.0000058105
10.0000059136
10.0000059842
10.0000061016
10.0000061585
10.0000062938
10.0000063192
10.0000064804
10.0000064438
10.0000066496
10.0000064998
10.0000000096
10.000000038
10.0000000673
10.0000001004
10.0000001382
10.0000001796
10.0000002234
10.0000002689
10.0000003166
10.000000367
10.0000004214
10.0000004808
10.000000546
10.0000006172
10.0000006946
10.0000007775
10.0000008657
10.0000009579
10.0000010539
10.0000011526
10.0000012537
10.0000013561
10.0000014599
10.0000015641
10.0000016686
10.000001773
10.0000018763
10.0000019803
10.0000020796
10.0000021852
10.0000022735
10.0000023917
10.0000024464
10.0000026177
10.0000025635
10.0000029248
10.0000025155
10.0000035055
10.0000019759
10.0000049164
10.0000000288
10.0000086275
9.99999439718
10.0000180372
9.99998029699
10.0000394274
9.99995035382
10.0000799813
9.99990029662
10.0001367717
9.99984546423
10.0001784769
9.99983047638
10.0001612219
9.99987373989
10.000111119
9.99992375381
10.0000372058
10.000027544
10.0000716139