/*--------------------------------*- C++ -*----------------------------------*\
  =========                 |
  \\      /  F ield         | OpenFOAM: The Open Source CFD Toolbox
   \\    /   O peration     | Website:  https://openfoam.org
    \\  /    A nd           | Version:  7
     \\/     M anipulation  |
\*---------------------------------------------------------------------------*/
FoamFile
{
    version     2.0;
    format      ascii;
    class       volScalarField;
    location    "2040";
    object      p;
}
// * * * * * * * * * * * * * * * * * * * * * * * * * * * * * * * * * * * * * //

dimensions      [0 2 -2 0 0 0 0];

internalField   nonuniform List<scalar> 
8192
(
0.000600398521269
0.0004288524237
0.000343246060844
0.000299146069932
0.000274136305904
0.00025891429967
0.000249060903858
0.00024233091208
0.000237517136286
0.000233935469284
0.000231178596133
0.000228992708201
0.000227213059508
0.000225728824224
0.000224463125636
0.000223361228753
0.000222383294394
0.000221499776394
0.000220688404085
0.000219932146647
0.00021921780383
0.00021853500711
0.000217875496194
0.000217232584115
0.00021660075364
0.000215975346303
0.000215352317161
0.00021472803616
0.000214099121919
0.000213462298232
0.000212814265233
0.000212151578252
0.000211470529143
0.000210767025772
0.000210036465952
0.000209273602843
0.000208472399426
0.000207625870688
0.00020672591329
0.000205763124338
0.000204726613125
0.000203603813107
0.000202380305331
0.000201039669844
0.000199563387292
0.000197930819265
0.000196119301299
0.000194104386139
0.000191860274342
0.00018936046347
0.000186578633443
0.000183489764923
0.00018007146015
0.000176305406203
0.0001721788928
0.000167686275924
0.000162830265432
0.000157622910061
0.000152086154149
0.000146251850481
0.000140161139276
0.000133863156944
0.000127413124329
0.000120869974312
0.00011429378092
0.000107743306927
0.000101273963646
9.49363560769e-05
8.87754401085e-05
8.28301920494e-05
7.71336056573e-05
7.17128261728e-05
6.65892829586e-05
6.17787609236e-05
5.72914227838e-05
5.31318418238e-05
4.9299121368e-05
4.57871678306e-05
4.25851553999e-05
3.96781831181e-05
3.70480879829e-05
3.46743508822e-05
3.25350197173e-05
3.06075778942e-05
2.88697016208e-05
2.72998714642e-05
2.58778254431e-05
2.45848594558e-05
2.3403993094e-05
2.2320025679e-05
2.13195088752e-05
2.03906607808e-05
1.95232426949e-05
1.87084156417e-05
1.79385893499e-05
1.72072727557e-05
1.65089318852e-05
1.58388586786e-05
1.51930524635e-05
1.45681146269e-05
1.39611561481e-05
1.33697172094e-05
1.27916977693e-05
1.22252979024e-05
1.16689666572e-05
1.11213582526e-05
1.05812945046e-05
1.00477324897e-05
9.51973657299e-06
8.99645405741e-06
8.47709386499e-06
7.96090782198e-06
7.44717435045e-06
6.93518464729e-06
6.42423188437e-06
5.91360460666e-06
5.40258660227e-06
4.8904672675e-06
4.37656956888e-06
3.860308062e-06
3.34129933924e-06
2.81956604154e-06
2.29591297568e-06
1.77263193535e-06
1.25486823901e-06
7.53419881801e-07
2.91619191856e-07
-1.4157828216e-08
0.000451481138155
0.000387970975517
0.000338290474732
0.000305650528055
0.000283741187275
0.000268570889554
0.00025776031119
0.000249844306974
0.000243897566105
0.000239321746189
0.00023572087099
0.000232826857242
0.000230454177629
0.000228471745044
0.000226785136255
0.000225325125954
0.000224040140042
0.000222891187953
0.000221848392554
0.000220888568874
0.000219993504035
0.000219148714131
0.000218342530846
0.000217565419398
0.000216809460867
0.000216067952549
0.000215335093639
0.000214605732811
0.000213875159929
0.00021313893019
0.000212392710941
0.000211632142784
0.0002108527092
0.000210049609944
0.000209217634356
0.000208351031638
0.000207443375935
0.000206487425144
0.000205474973513
0.00020439669977
0.000203242014533
0.00020199891354
0.000200653846499
0.000199191615514
0.000197595321474
0.000195846381574
0.000193924645045
0.000191808636705
0.00018947595703
0.000186903862315
0.000184070037088
0.000180953553829
0.000177535992557
0.000173802668676
0.000169743894939
0.000165356186882
0.000160643311722
0.000155617078367
0.000150297768539
0.00014471411764
0.00013890277398
0.000132907206599
0.000126776100345
0.00012056136648
0.000114315982272
0.000108091919536
0.00010193841034
9.59006903013e-05
9.00192401743e-05
8.4329449535e-05
7.88615514433e-05
7.36406756657e-05
6.86869118522e-05
6.40153374701e-05
5.96360217897e-05
5.55540533873e-05
5.1769650465e-05
4.82784051286e-05
4.50716897736e-05
4.21372239826e-05
3.94597707967e-05
3.70219098342e-05
3.48048250744e-05
3.2789048468e-05
3.09551131251e-05
2.92840875875e-05
2.77579802754e-05
2.6360017994e-05
2.50748122869e-05
2.38884329626e-05
2.27884095956e-05
2.17636808836e-05
2.08045090748e-05
1.99023735785e-05
1.90498545347e-05
1.8240514271e-05
1.74687820291e-05
1.67298454562e-05
1.60195508125e-05
1.5334312823e-05
1.46710343108e-05
1.40270352986e-05
1.33999909299e-05
1.27878774302e-05
1.21889252342e-05
1.1601578426e-05
1.10244596675e-05
1.04563398684e-05
9.8961119435e-06
9.34276811303e-06
8.79538033911e-06
8.25308364967e-06
7.71506232099e-06
7.18053916607e-06
6.64876859279e-06
6.11903467527e-06
5.59065638882e-06
5.06300351037e-06
4.53552884013e-06
4.00782576309e-06
3.47972562654e-06
2.95145827264e-06
2.42391390838e-06
1.89907029035e-06
1.38069487933e-06
8.75548658782e-07
3.94979793124e-07
3.13502209279e-08
0.000368523833097
0.000345861385102
0.000319878134256
0.00029865207736
0.00028254379226
0.000270243385863
0.000260730983856
0.000253278775204
0.000247364694752
0.000242609570417
0.000238735175452
0.000235535555874
0.000232856970148
0.000230583666434
0.000228627724501
0.000226921761529
0.000225413665446
0.000224062767746
0.000222837041564
0.000221711033135
0.000220664320771
0.000219680355698
0.000218745581243
0.000217848756336
0.00021698042994
0.000216132527599
0.000215298021617
0.000214470663587
0.000213644762429
0.000212814997548
0.000211976257483
0.000211123495547
0.000210251597126
0.000209355254071
0.000208428842482
0.000207466301131
0.000206461008511
0.000205405657528
0.000204292127842
0.000203111357323
0.000201853215712
0.000200506385931
0.000199058261049
0.000197494868431
0.000195800836124
0.000193959420694
0.000191952619086
0.000189761389585
0.000187366006565
0.000184746569908
0.000181883680418
0.000178759277875
0.000175357618261
0.000171666344995
0.000167677588691
0.000163389016077
0.000158804741882
0.00015393601737
0.000148801611301
0.000143427803834
0.000137847925451
0.000132101403761
0.000126232339862
0.000120287721567
0.00011431546834
0.000108362553858
0.000102473454008
9.6689047145e-05
9.10459742935e-05
8.55763833232e-05
8.03079014871e-05
7.52636902089e-05
7.0462485746e-05
6.59185935407e-05
6.16418562149e-05
5.76376452813e-05
5.39069336854e-05
5.04464964081e-05
4.72492639392e-05
4.43048255739e-05
4.16000520051e-05
3.9119787366e-05
3.68475528806e-05
3.47662087323e-05
3.28585334041e-05
3.11076966215e-05
2.94976178864e-05
2.80132154475e-05
2.66405586192e-05
2.53669406136e-05
2.41808897851e-05
2.30721361087e-05
2.20315472528e-05
2.10510459724e-05
2.01235177529e-05
1.92427153309e-05
1.84031646422e-05
1.76000752411e-05
1.6829256974e-05
1.60870438644e-05
1.53702255025e-05
1.4675985852e-05
1.40018490906e-05
1.33456319682e-05
1.27054020738e-05
1.2079441394e-05
1.14662145592e-05
1.08643412202e-05
1.02725720708e-05
9.68976810811e-06
9.11488283866e-06
8.54694725368e-06
7.98505757263e-06
7.4283659462e-06
6.87607460839e-06
6.32743432256e-06
5.78174851465e-06
5.23838518985e-06
4.69679978483e-06
4.15657353453e-06
3.61747406262e-06
3.07954797189e-06
2.54325999819e-06
2.0097002148e-06
1.48088839962e-06
9.60142573715e-07
4.51818944581e-07
4.38802965874e-08
0.000323960845125
0.000315578397375
0.000301393158876
0.000287608503976
0.000276187391332
0.000266918690373
0.000259349579491
0.000253111832139
0.000247927356208
0.000243583622597
0.000239914881568
0.000236790052017
0.000234104647795
0.000231775005437
0.000229733922804
0.000227927260812
0.000226311260227
0.000224850414101
0.00022351577958
0.000222283638301
0.000221134432651
0.000220051919585
0.000219022495413
0.000218034654608
0.000217078553478
0.000216145655727
0.000215228442006
0.000214320168696
0.000213414663725
0.000212506152882
0.000211589108759
0.00021065811495
0.000209707741603
0.000208732428506
0.000207726372541
0.00020668341711
0.00020559694175
0.000204459750934
0.000203263961886
0.00020200089237
0.000200660950773
0.000199233532651
0.000197706930203
0.000196068264031
0.000194303449948
0.000192397217446
0.000190333200139
0.000188094121527
0.000185662100339
0.000183019097213
0.000180147516698
0.000177030964863
0.000173655143297
0.000170008838203
0.000166084942918
0.000161881438851
0.000157402255327
0.000152657930738
0.000147665999482
0.000142451028428
0.000137044228282
0.000131482585115
0.000125807512086
0.000120063114874
0.000114294270284
0.000108544783217
0.000102855908259
9.72653625319e-05
9.18068183999e-05
8.6509783547e-05
8.13996783314e-05
7.64979472317e-05
7.18221086991e-05
6.73857237539e-05
6.31983190442e-05
5.9265326718e-05
5.55881058482e-05
5.21640963848e-05
4.89871318334e-05
4.60479066118e-05
4.33345648812e-05
4.08333574991e-05
3.85293068537e-05
3.64068257801e-05
3.44502517868e-05
3.26442759967e-05
3.09742624271e-05
2.94264652235e-05
2.79881583612e-05
2.66476951767e-05
2.53945148649e-05
2.42191112771e-05
2.31129766868e-05
2.20685305147e-05
2.10790404545e-05
2.01385413757e-05
1.92417556484e-05
1.83840172729e-05
1.7561201205e-05
1.67696586015e-05
1.60061582077e-05
1.52678338097e-05
1.45521374495e-05
1.38567980021e-05
1.31797846386e-05
1.25192746981e-05
1.18736254918e-05
1.12413496063e-05
1.0621093315e-05
1.00116177692e-05
9.4117827126e-06
8.82053254536e-06
8.23688466524e-06
7.65992013302e-06
7.08877686381e-06
6.5226457335e-06
5.96077024983e-06
5.40245077181e-06
4.84705475459e-06
4.29403520618e-06
3.74296067594e-06
3.19356186116e-06
2.64580239932e-06
2.09998256743e-06
1.55686818603e-06
1.01771308371e-06
4.83451155432e-07
4.59640720635e-08
0.000296333335598
0.0002943699452
0.000286575767821
0.000277387752078
0.000269110826905
0.000262082309653
0.000256145211806
0.000251094228434
0.000246761036745
0.000243015971737
0.000239757772215
0.000236905190859
0.00023439160101
0.000232161620867
0.000230168881229
0.000228374419748
0.000226745435273
0.000225254272241
0.000223877571188
0.000222595551021
0.000221391401312
0.000220250768283
0.000219161320703
0.000218112383551
0.000217094628647
0.000216099812712
0.000215120555031
0.000214150145981
0.000213182380276
0.000212211412287
0.000211231627833
0.000210237526837
0.000209223614708
0.000208184299626
0.000207113793317
0.00020600601339
0.000204854485718
0.000203652245883
0.000202391739291
0.000201064720436
0.000199662152832
0.000198174112697
0.000196589701392
0.000194896974357
0.000193082897501
0.000191133346088
0.000189033165404
0.000186766316564
0.000184316133265
0.000181665714488
0.000178798471843
0.00017569883703
0.000172353114432
0.000168750439502
0.000164883780995
0.00016075091123
0.000156355266509
0.000151706625368
0.000146821535329
0.000141723411925
0.000136442222325
0.000131013672098
0.000125477865306
0.000119877518191
0.000114255946014
0.0001086551349
0.000103114257966
9.76687729134e-05
9.23500628242e-05
8.71854958157e-05
8.2198653009e-05
7.74095281932e-05
7.28345993373e-05
6.84867688365e-05
6.43752311319e-05
6.05053492578e-05
5.68786179799e-05
5.34927723929e-05
5.034207189e-05
4.74177544163e-05
4.47086222065e-05
4.22016975385e-05
3.98828809277e-05
3.77375538907e-05
3.57510874885e-05
3.39092390792e-05
3.21984373219e-05
3.06059672423e-05
2.91200729542e-05
2.77299970139e-05
2.64259739085e-05
2.51991924384e-05
2.40417385934e-05
2.29465276213e-05
2.19072314899e-05
2.09182060005e-05
1.99744203095e-05
1.90713905458e-05
1.820511843e-05
1.73720352867e-05
1.65689514812e-05
1.57930110965e-05
1.50416515284e-05
1.43125676073e-05
1.36036798276e-05
1.29131062626e-05
1.22391377629e-05
1.1580216063e-05
1.0934914463e-05
1.03019207874e-05
9.68002237739e-06
9.06809291744e-06
8.46508095798e-06
7.87000005711e-06
7.28192054857e-06
6.69996304082e-06
6.12329390382e-06
5.55112321105e-06
4.98270595423e-06
4.41734788471e-06
3.8544181598e-06
3.29337192614e-06
2.73378595559e-06
2.17540403122e-06
1.61815444491e-06
1.06196686099e-06
5.05858465568e-07
4.63914056315e-08
0.000277978950321
0.000278879843499
0.000274842211219
0.00026871169394
0.000262620387671
0.000257190164554
0.000252471526691
0.000248369510377
0.000244777449853
0.000241606796181
0.000238788131531
0.000236266610849
0.000233997761703
0.000231944584018
0.000230075699277
0.000228364167914
0.000226786694879
0.000225323053839
0.000223955636644
0.000222669079462
0.000221449941107
0.000220286421085
0.00021916811062
0.000218085772313
0.000217031145123
0.00021599677168
0.000214975846144
0.00021396207651
0.000212949560901
0.00021193267748
0.000210905984012
0.000209864123376
0.000208801734308
0.000207713365485
0.000206593391264
0.000205435927604
0.000204234746896
0.000202983190761
0.0002016740802
0.000200299623136
0.000198851320124
0.000197319870298
0.000195695081325
0.000193965789614
0.000192119800366
0.000190143861338
0.000188023689294
0.000185744073484
0.000183289084848
0.000180642420885
0.000177787911524
0.00017471019815
0.00017139557551
0.000167832957546
0.000164014901191
0.000159938606703
0.000155606814343
0.000151028529309
0.000146219512972
0.000141202464476
0.000136006787205
0.000130667820405
0.000125225462138
0.000119722244362
0.000114201112893
0.000108703302017
0.000103266776279
9.79253994495e-05
9.27087546137e-05
8.76424374705e-05
8.27484816498e-05
7.80456702911e-05
7.35496298441e-05
6.92727285579e-05
6.52238711874e-05
6.14082972619e-05
5.78274772322e-05
5.44791758873e-05
5.13577183622e-05
4.84544521024e-05
4.5758357135e-05
4.32567301068e-05
4.09358624466e-05
3.87816476673e-05
3.67800780023e-05
3.49176164066e-05
3.31814497305e-05
3.15596405631e-05
3.00411996813e-05
2.8616100656e-05
2.72752551225e-05
2.60104633511e-05
2.48143509238e-05
2.36802991265e-05
2.26023741253e-05
2.15752581511e-05
2.05941845828e-05
1.9654877934e-05
1.87534991374e-05
1.78865961566e-05
1.70510597111e-05
1.62440837811e-05
1.54631304848e-05
1.47058989072e-05
1.3970297454e-05
1.32544193324e-05
1.25565207817e-05
1.18750017129e-05
1.12083884468e-05
1.05553182776e-05
9.91452561555e-06
9.2848295032e-06
8.66512232644e-06
8.05435958701e-06
7.45155065035e-06
6.85575045464e-06
6.26605227521e-06
5.68158180307e-06
5.10149304594e-06
4.52496688193e-06
3.95121336345e-06
3.37947847328e-06
2.80905290509e-06
2.23926804272e-06
1.66942431344e-06
1.09849284462e-06
5.24269225239e-07
4.71833425922e-08
0.000265094673429
0.000267225143672
0.00026543223894
0.00026141770447
0.000256932296327
0.000252693124569
0.000248889721637
0.000245516622724
0.000242516580405
0.000239829261896
0.000237403725091
0.000235199230825
0.000233183194422
0.000231329018265
0.000229614446928
0.000228020446002
0.000226530463077
0.000225129935998
0.000223805951934
0.000222546996005
0.000221342753161
0.000220183942734
0.000219062174425
0.000217969819598
0.000216899894536
0.000215845953616
0.000214801992879
0.000213762356837
0.000212721652757
0.000211674672592
0.000210616318732
0.000209541531852
0.00020844522081
0.000207322193361
0.000206167086548
0.00020497429561
0.000203737900328
0.000202451587831
0.000201108571058
0.000199701502437
0.000198222382887
0.00019666246722
0.000195012168512
0.000193260966303
0.000191397326845
0.00018940864828
0.000187281249639
0.000185000429529
0.000182550627047
0.0001799157214
0.000177079504225
0.000174026345617
0.0001707420493
0.000167214857303
0.000163436530141
0.000159403409924
0.000155117379951
0.000150586657519
0.000145826370153
0.000140858843562
0.000135713474228
0.000130426013364
0.000125037121696
0.000119590221335
0.00011412894307
0.000108694678985
0.000103324879352
9.80522933155e-05
9.29050235274e-05
8.79071294181e-05
8.3079307278e-05
7.84393349405e-05
7.40021781542e-05
6.97798225499e-05
6.57809694561e-05
6.20107355156e-05
5.84704694509e-05
5.51577678929e-05
5.20667328943e-05
4.91884624325e-05
4.65117132825e-05
4.40236425042e-05
4.1710530371e-05
3.95584096872e-05
3.75535604219e-05
3.56828607445e-05
3.39340080766e-05
3.22956351387e-05
3.07573485417e-05
2.93097147664e-05
2.79442134133e-05
2.66531723526e-05
2.5429694836e-05
2.42675850808e-05
2.3161276268e-05
2.21057631409e-05
2.10965402403e-05
2.01295460976e-05
1.92011132759e-05
1.83079239159e-05
1.74469703239e-05
1.66155200957e-05
1.58110852729e-05
1.50313950483e-05
1.42743715763e-05
1.35381084823e-05
1.28208517062e-05
1.21209823526e-05
1.14370012573e-05
1.07675150056e-05
1.01112231719e-05
9.46690657096e-06
8.83341633682e-06
8.20966367714e-06
7.59461018194e-06
6.98725861763e-06
6.3866442056e-06
5.79182647188e-06
5.20188183865e-06
4.61589710477e-06
4.03296352206e-06
3.45216943196e-06
2.87258407241e-06
2.29321057407e-06
1.71285117193e-06
1.12976301826e-06
5.40938939531e-07
4.9340624601e-08
0.000255636318354
0.000258232802734
0.000257789514683
0.000255258110127
0.000251988760578
0.000248676769805
0.000245587814014
0.000242784392627
0.000240252335676
0.000237956200178
0.000235859707278
0.000233931663233
0.000232146600366
0.000230483855457
0.000228926430489
0.000227460040703
0.000226072414265
0.000224752803275
0.000223491647313
0.000222280339203
0.000221111056479
0.000219976634134
0.000218870463109
0.000217786404988
0.000216718717139
0.000215661984773
0.000214611060442
0.000213561001497
0.000212507011648
0.000211444388106
0.000210368468078
0.000209274575262
0.000208157966106
0.000207013774998
0.000205836957498
0.000204622230644
0.000203364009298
0.00020205633748
0.000200692813627
0.000199266508875
0.00019776987776
0.000196194661427
0.000194531784649
0.000192771250056
0.000190902036276
0.000188912011752
0.00018678788296
0.000184515204617
0.000182078489018
0.000179461459101
0.000176647490408
0.000173620274794
0.00017036470915
0.000166867968039
0.000163120673527
0.000159118051065
0.0001548609735
0.000150356836663
0.000145620238176
0.000140673401021
0.000135546191179
0.000130275482474
0.000124903626247
0.000119475988854
0.000114037912129
0.00010863178809
0.000103295129255
9.80598966718e-05
9.29528779448e-05
8.79967100405e-05
8.32108881086e-05
7.86123620733e-05
7.42156329488e-05
7.00324798814e-05
6.60715218173e-05
6.23377926118e-05
5.88324620834e-05
5.55527990416e-05
5.24924292043e-05
4.96418771152e-05
4.69893130447e-05
4.45213836999e-05
4.22240051679e-05
4.008302995e-05
3.80847462985e-05
3.62162085977e-05
3.44654230606e-05
3.28214234529e-05
3.12742713002e-05
2.98150093086e-05
2.84355893433e-05
2.71287895101e-05
2.58881294724e-05
2.47077892902e-05
2.3582534482e-05
2.25076484137e-05
2.14788721611e-05
2.04923514894e-05
1.95445903305e-05
1.86324100596e-05
1.77529138552e-05
1.69034554786e-05
1.60816118611e-05
1.528515896e-05
1.45120504078e-05
1.37603985404e-05
1.30284574394e-05
1.23146076756e-05
1.16173424711e-05
1.09352550355e-05
1.02670268539e-05
9.61141672769e-06
8.96725039017e-06
8.33341053529e-06
7.70882711918e-06
7.09246781241e-06
6.48332849181e-06
5.88042364099e-06
5.28277640896e-06
4.68940769037e-06
4.0993225333e-06
3.51148952194e-06
2.92480250605e-06
2.33800033714e-06
1.74949444259e-06
1.15702129784e-06
5.57048441026e-07
5.34384453403e-08
0.000248438238071
0.000251146374251
0.000251513635737
0.000250025850645
0.000247688196848
0.000245117143812
0.000242606029872
0.000240262585287
0.000238107839984
0.000236128969758
0.000234303352065
0.000232608129354
0.000231023299309
0.000229532200606
0.000228121103063
0.000226778597677
0.000225495036562
0.000224262089212
0.00022307241298
0.000221919415214
0.000220797082524
0.000219699856754
0.000218622542381
0.000217560234625
0.000216508260974
0.00021546213139
0.000214417495857
0.000213370100327
0.000212315744349
0.00021125024519
0.000210169398735
0.000209068939605
0.000207944499825
0.000206791565295
0.000205605429258
0.000204381141806
0.000203113454359
0.000201796757891
0.000200425013566
0.000198991674357
0.000197489596321
0.000195910938555
0.000194247051766
0.000192488357182
0.000190624220739
0.00018864283276
0.000186531111378
0.000184274658876
0.000181857813215
0.000179263849137
0.000176475388367
0.000173475067794
0.000170246480357
0.000166775346028
0.000163050807483
0.000159066710063
0.000154822748397
0.000150325432895
0.000145588884571
0.000140635429754
0.000135495821991
0.000130208745044
0.00012481920009
0.000119375625151
0.000113926166004
0.000108515062851
0.00010318039198
9.79535165563e-05
9.28599242586e-05
8.79208267372e-05
8.315459243e-05
7.85775077691e-05
7.42038216417e-05
7.00453114447e-05
6.61106655845e-05
6.24049037347e-05
5.89289822865e-05
5.56796964545e-05
5.2649947763e-05
4.98293646561e-05
4.72051713529e-05
4.47631448862e-05
4.24885054339e-05
4.03666355626e-05
3.83835877303e-05
3.65263904944e-05
3.47831923324e-05
3.31432902031e-05
3.159708558e-05
3.01360009334e-05
2.87523793462e-05
2.74393813675e-05
2.61908869954e-05
2.50014065728e-05
2.3866001898e-05
2.27802174582e-05
2.17400210107e-05
2.07417524491e-05
1.97820798429e-05
1.88579615962e-05
1.79666137817e-05
1.71054818295e-05
1.62722158687e-05
1.54646491282e-05
1.46807788958e-05
1.39187496108e-05
1.31768377326e-05
1.24534380764e-05
1.17470513509e-05
1.10562726657e-05
1.03797807991e-05
9.71632804055e-06
9.06473042905e-06
8.42385822254e-06
7.79262642568e-06
7.16998518797e-06
6.55490982662e-06
5.94639009497e-06
5.34341800749e-06
4.74497285083e-06
4.15000053715e-06
3.5573813747e-06
2.96587415821e-06
2.37401318434e-06
1.77991796553e-06
1.1809631083e-06
5.7328565492e-07
5.98538271999e-08
0.000242803478993
0.000245462839966
0.000246312738599
0.000245559764554
0.000243937996504
0.000241966155369
0.000239933327308
0.000237972341884
0.000236130310648
0.000234413784811
0.000232812880485
0.000231312751434
0.00022989846573
0.000228556740245
0.000227276298784
0.000226047696181
0.000224862985364
0.000223715381946
0.000222598979556
0.000221508525904
0.000220439253057
0.000219386750852
0.000218346872505
0.000217315663279
0.000216289305206
0.000215264073534
0.000214236300065
0.000213202338451
0.000212158530177
0.00021110117778
0.00021002651468
0.000208930674077
0.00020780965601
0.000206659291771
0.000205475204791
0.000204252766988
0.000202987049367
0.000201672765472
0.000200304205986
0.000198875162552
0.000197378838678
0.000195807745633
0.000194153581751
0.000192407094917
0.000190557930988
0.000188594476295
0.000186503711266
0.000184271105544
0.000181880602194
0.000179314756922
0.000176555110071
0.000173582862272
0.000170379885703
0.000166930028293
0.000163220578971
0.000159243708458
0.000154997734464
0.000150488177738
0.000145728678785
0.000140741805529
0.000135559565326
0.000130223145165
0.000124781251275
0.000119286690663
0.000113791673568
0.000108343214077
0.000102980410645
9.77340832308e-05
9.26282744864e-05
8.76826518621e-05
8.29144848805e-05
7.83395692474e-05
7.39721480314e-05
6.98242372917e-05
6.5904775144e-05
6.22188548367e-05
5.87671918005e-05
5.55459532179e-05
5.2547045205e-05
4.97588467348e-05
4.71672487353e-05
4.47567829221e-05
4.25116403157e-05
4.04164559108e-05
3.84568237778e-05
3.66195709566e-05
3.48928489654e-05
3.32661056943e-05
3.17299899615e-05
3.02762260654e-05
2.88974818762e-05
2.75872435761e-05
2.63397031746e-05
2.51496607377e-05
2.40124409899e-05
2.2923822892e-05
2.18799804192e-05
2.08774327709e-05
1.99130023959e-05
1.89837794496e-05
1.80870915171e-05
1.7220477649e-05
1.6381665926e-05
1.55685539167e-05
1.47791915063e-05
1.40117656723e-05
1.32645868501e-05
1.25360765956e-05
1.18247562884e-05
1.11292366621e-05
1.04482079603e-05
9.78043054323e-06
9.12472576481e-06
8.47996694254e-06
7.84507020854e-06
7.2189849778e-06
6.600683646e-06
5.98914989718e-06
5.38336454176e-06
4.78228692522e-06
4.18482826535e-06
3.58981016129e-06
2.99589604449e-06
2.40147482345e-06
1.8044661588e-06
1.20201550465e-06
5.90077431075e-07
6.88355182506e-08
0.00023829679312
0.000240839107754
0.000241970247411
0.000241734193464
0.000240662066197
0.000239176561852
0.000237544406142
0.000235907970796
0.000234331586982
0.000232837166567
0.00023142609543
0.00023009113023
0.000228822303482
0.000227609586659
0.000226443919103
0.000225317467753
0.000224223557905
0.000223156487984
0.000222111324913
0.000221083719189
0.000220069751656
0.000219065812076
0.000218068504996
0.00021707457728
0.000216080861957
0.000215084236031
0.000214081583871
0.000213069765406
0.000212045586528
0.000211005775676
0.000209946958446
0.00020886563142
0.00020775813424
0.000206620619015
0.000205449016072
0.000204238994899
0.000202985918969
0.000201684792763
0.000200330198975
0.000198916223399
0.000197436364567
0.000195883424813
0.000194249379504
0.000192525221994
0.000190700784321
0.000188764538954
0.000186703396507
0.000184502530023
0.000182145278597
0.000179613209397
0.000176886438831
0.000173944313924
0.000170766512401
0.000167334522656
0.000163633335798
0.00015965309505
0.000155390494283
0.000150849908038
0.000146044422278
0.000140996901944
0.000135740913751
0.000130320864316
0.000124790383252
0.000119208230979
0.000113632236949
0.000108113273689
0.000102691904315
9.73983108109e-05
9.22547597452e-05
8.72791358071e-05
8.24876106922e-05
7.7895698788e-05
7.35179380941e-05
6.93668653567e-05
6.54518713262e-05
6.17782176569e-05
5.834634074e-05
5.51515918624e-05
5.2184555556e-05
4.94319427186e-05
4.68778637641e-05
4.45051866131e-05
4.22967185883e-05
4.02360675024e-05
3.8308158196e-05
3.64994599448e-05
3.47980104412e-05
3.31933183806e-05
3.16762075472e-05
3.02386437134e-05
2.88735679084e-05
2.75747472893e-05
2.63366473239e-05
2.51543249148e-05
2.40233402299e-05
2.29396843796e-05
2.18997201202e-05
2.09001330748e-05
1.99378913707e-05
1.90102119818e-05
1.81145324189e-05
1.72484866859e-05
1.64098846585e-05
1.5596694213e-05
1.4807025575e-05
1.40391174623e-05
1.3291324678e-05
1.25621068694e-05
1.18500182149e-05
1.11536978335e-05
1.04718607302e-05
9.8032891048e-06
9.14682384224e-06
8.50135598753e-06
7.86581795474e-06
7.23917412877e-06
6.62041034451e-06
6.00852141721e-06
5.40249534072e-06
4.80129178307e-06
4.20381078623e-06
3.60884467943e-06
3.0150016858e-06
2.42058368032e-06
1.82339548643e-06
1.22046657985e-06
6.07690450008e-07
8.05314725881e-08
0.00023463503254
0.000237035482026
0.00023832290165
0.000238449531308
0.000237798509329
0.000236707512564
0.000235412573486
0.000234054812282
0.000232708188408
0.000231405806296
0.00023015840868
0.000228965636411
0.000227822290439
0.000226721565888
0.000225656587925
0.000224621048313
0.00022360939219
0.000222616796727
0.000221639066392
0.000220672505946
0.000219713798897
0.000218759902042
0.000217807958415
0.000216855227311
0.000215899028417
0.000214936700073
0.000213965562319
0.000212982883906
0.000211985855555
0.000210971566917
0.00020993698318
0.000208878921202
0.000207794024145
0.000206678733601
0.000205529258111
0.00020434153684
0.000203111196894
0.00020183350242
0.000200503293075
0.000199114908852
0.000197662097454
0.000196137899647
0.000194534507472
0.00019284309031
0.000191053585541
0.000189154455276
0.000187132420654
0.000184972203033
0.000182656329184
0.000180165093927
0.000177476809431
0.000174568483578
0.000171417026942
0.000168000962286
0.000164302422126
0.000160309074331
0.000156015669667
0.000151425208579
0.000146550054682
0.000141413311749
0.000136050322639
0.000130509456351
0.000124850724615
0.000119140872529
0.000113445378017
0.000107820320847
0.000102308185933
9.69382458574e-05
9.17304290176e-05
8.67004741158e-05
8.18634579485e-05
7.7234895983e-05
7.28299976241e-05
6.86621416384e-05
6.47413800953e-05
6.10732239463e-05
5.76577576748e-05
5.44892637963e-05
5.15565849602e-05
4.88442389985e-05
4.63340125507e-05
4.40066217036e-05
4.18430971004e-05
3.98257280293e-05
3.79385659072e-05
3.61675829193e-05
3.45006072462e-05
3.2927140044e-05
3.14381281824e-05
3.00257370168e-05
2.86831453568e-05
2.74043708137e-05
2.61841259556e-05
2.50177020894e-05
2.39008762252e-05
2.28298367769e-05
2.18011240574e-05
2.08115823226e-05
1.98583207704e-05
1.89386814891e-05
1.80502128042e-05
1.71906468486e-05
1.63578804476e-05
1.5549958632e-05
1.47650602385e-05
1.40014851828e-05
1.32576430682e-05
1.25320428646e-05
1.18232834291e-05
1.11300446793e-05
1.045107924e-05
9.78520439426e-06
9.13129415351e-06
8.48827123168e-06
7.85509863576e-06
7.23077046735e-06
6.61430131484e-06
6.00471325744e-06
5.40101889038e-06
4.80219776882e-06
4.20716201907e-06
3.61470432232e-06
3.02341789915e-06
2.43157406883e-06
1.83694073737e-06
1.23652992151e-06
6.26279656431e-07
9.50006812478e-08
0.000231626732401
0.000233880498354
0.000235245825329
0.000235625505028
0.000235296217
0.000234524485049
0.000233513479748
0.000232396322828
0.000231250676636
0.00023011700224
0.00022901331452
0.000227945165485
0.000226911750772
0.000225909390231
0.000224933390923
0.000223978972353
0.000223041673415
0.000222117486523
0.000221202857208
0.000220294624377
0.00021938994051
0.00021848619106
0.000217580921494
0.000216671774799
0.000215756439347
0.000214832608701
0.000213897945884
0.000212950048434
0.000211986423742
0.000211004465452
0.000210001430639
0.000208974416745
0.000207920337229
0.000206835894879
0.000205717551601
0.000204561493362
0.000203363588634
0.000202119338238
0.000200823813857
0.000199471581639
0.000198056606222
0.000196572129289
0.00019501051551
0.000193363057982
0.000191619735932
0.000189768921209
0.000187797039855
0.000185688214639
0.000183423948051
0.000180982954042
0.000178341302154
0.000175473072558
0.000172351684913
0.000168951905484
0.000165252261807
0.000161237346099
0.000156899533265
0.000152240114843
0.000147270426251
0.000142013582269
0.000136506773301
0.000130803081322
0.000124970694353
0.000119087055171
0.00011322807541
0.000107456802512
0.000101818163619
9.63400380835e-05
9.10391505594e-05
8.59286057956e-05
8.10224318427e-05
7.63365438137e-05
7.18872886243e-05
6.76892232892e-05
6.3753233766e-05
6.00851078012e-05
5.66844330791e-05
5.35440616604e-05
5.06505281237e-05
4.79854743078e-05
4.55276823213e-05
4.32551321918e-05
4.11466334741e-05
3.91828502512e-05
3.73467644345e-05
3.56237322528e-05
3.40013019485e-05
3.24689245828e-05
3.10176425617e-05
2.96398010833e-05
2.83288012311e-05
2.70788982554e-05
2.58850411965e-05
2.47427472447e-05
2.36480038997e-05
2.25971927377e-05
2.15870296897e-05
2.06145178265e-05
1.96769095907e-05
1.87716761773e-05
1.78964823508e-05
1.70491654247e-05
1.62277174602e-05