/*--------------------------------*- C++ -*----------------------------------*\
  =========                 |
  \\      /  F ield         | OpenFOAM: The Open Source CFD Toolbox
   \\    /   O peration     | Website:  https://openfoam.org
    \\  /    A nd           | Version:  7
     \\/     M anipulation  |
\*---------------------------------------------------------------------------*/
FoamFile
{
    version     2.0;
    format      ascii;
    class       volVectorField;
    location    "2040";
    object      U;
}
// * * * * * * * * * * * * * * * * * * * * * * * * * * * * * * * * * * * * * //

dimensions      [0 1 -1 0 0 0 0];

internalField   nonuniform List<vector> 
8192
(
(0.00104347028 0.000156529719995 0)
(0.000759349872975 0.000127590685962 0)
(0.00054936565824 8.23935266572e-05 0)
(0.000414115342732 5.28567868147e-05 0)
(0.000326292847941 3.49657059895e-05 0)
(0.000267248635217 2.4078504742e-05 0)
(0.000225919499789 1.72506286929e-05 0)
(0.000195869923088 1.27989460204e-05 0)
(0.000173293667597 9.77730749382e-06 0)
(0.000155869438062 7.64692007854e-06 0)
(0.00014212963954 6.09287650237e-06 0)
(0.000131111626341 4.92513478454e-06 0)
(0.000122161469228 4.02502045257e-06 0)
(0.00011482058379 3.31586315713e-06 0)
(0.000108758220836 2.74649802134e-06 0)
(0.000103729982703 2.28173840008e-06 0)
(9.95515301968e-05 1.89671246679e-06 0)
(9.6081419091e-05 1.57339708113e-06 0)
(9.32095850024e-05 1.29843554082e-06 0)
(9.08494218586e-05 1.06172623764e-06 0)
(8.89322077239e-05 8.55486643777e-07 0)
(8.74031020622e-05 6.7361788822e-07 0)
(8.62182191928e-05 5.11263986684e-07 0)
(8.53424544076e-05 3.64499952261e-07 0)
(8.47478467517e-05 2.30107018427e-07 0)
(8.44123313108e-05 1.05407912438e-07 0)
(8.43187787534e-05 -1.18556762806e-08 0)
(8.44542496453e-05 -1.2361533337e-07 0)
(8.48094106214e-05 -2.31545542935e-07 0)
(8.53780738469e-05 -3.37117350628e-07 0)
(8.61568314396e-05 -4.41639664601e-07 0)
(8.71447619838e-05 -5.46290043275e-07 0)
(8.83431899677e-05 -6.52136834014e-07 0)
(8.97554818517e-05 -7.60153662236e-07 0)
(9.13868638511e-05 -8.71226660477e-07 0)
(9.32442467891e-05 -9.86154305306e-07 0)
(9.53360426988e-05 -1.10563933425e-06 0)
(9.76719564321e-05 -1.23027183068e-06 0)
(0.000100262733446 -1.36050232102e-06 0)
(0.000103119842465 -1.49660355045e-06 0)
(0.000106255069145 -1.63861970869e-06 0)
(0.000109679994768 -1.78630223765e-06 0)
(0.000113405333201 -1.93903228564e-06 0)
(0.000117440100974 -2.09573137256e-06 0)
(0.000121790600872 -2.25476423821e-06 0)
(0.000126459210532 -2.41384099882e-06 0)
(0.000131442985744 -2.56992969818e-06 0)
(0.000136732114368 -2.71919436446e-06 0)
(0.000142308290395 -2.85697710636e-06 0)
(0.000148143116017 -2.97784401773e-06 0)
(0.000154196677023 -3.07571260478e-06 0)
(0.00016041646571 -3.14407187041e-06 0)
(0.000166736837252 -3.17629568591e-06 0)
(0.00017307917384 -3.16603719386e-06 0)
(0.000179352894605 -3.10768018643e-06 0)
(0.000185457392905 -2.99681508949e-06 0)
(0.000191284913824 -2.83070319094e-06 0)
(0.000196724309112 -2.60868985834e-06 0)
(0.000201665522768 -2.33252195907e-06 0)
(0.000206004561239 -2.00651506229e-06 0)
(0.000209648586416 -1.6375090362e-06 0)
(0.000212520655359 -1.23455917626e-06 0)
(0.000214563562369 -8.08347430765e-07 0)
(0.000215742274728 -3.70364840175e-07 0)
(0.000216044631554 6.80077846321e-08 0)
(0.000215480278435 4.96344772597e-07 0)
(0.000214078162175 9.05770562014e-07 0)
(0.000211883167591 1.28922269447e-06 0)
(0.000208952544057 1.6413990676e-06 0)
(0.000205352659724 1.95848301119e-06 0)
(0.000201156384105 2.23778984455e-06 0)
(0.000196441127862 2.47746311352e-06 0)
(0.000191287366059 2.67629488946e-06 0)
(0.000185777384074 2.83368279764e-06 0)
(0.000179994007055 2.94968945946e-06 0)
(0.000174019165411 3.02514700214e-06 0)
(0.000167932265713 3.06174714596e-06 0)
(0.000161808442759 3.06206995033e-06 0)
(0.000155716841743 3.02952496509e-06 0)
(0.000149719108003 2.96820249816e-06 0)
(0.000143868244933 2.88265418925e-06 0)
(0.000138207947773 2.77763654777e-06 0)
(0.000132772449502 2.65785532401e-06 0)
(0.000127586844412 2.52774345178e-06 0)
(0.000122667800982 2.39129380296e-06 0)
(0.000118024546269 2.25195491838e-06 0)
(0.000113659999033 2.11258655265e-06 0)
(0.000109571942401 1.97546457121e-06 0)
(0.000105754151185 1.84232141933e-06 0)
(0.000102197416366 1.71440847546e-06 0)
(9.8890434691e-05 1.5925685893e-06 0)
(9.58205517454e-05 1.47731006562e-06 0)
(9.29743614709e-05 1.36887623954e-06 0)
(9.03381742445e-05 1.2673073351e-06 0)
(8.78983704213e-05 1.17249314758e-06 0)
(8.56416578199e-05 1.08421641396e-06 0)
(8.35552511688e-05 1.00218748594e-06 0)
(8.16269898505e-05 9.26071355161e-07 0)
(7.98454080739e-05 8.55508203052e-07 0)
(7.81997692351e-05 7.90128659414e-07 0)
(7.66800739898e-05 7.29564835017e-07 0)
(7.52770495409e-05 6.73458071271e-07 0)
(7.39821259308e-05 6.21464188098e-07 0)
(7.27874036841e-05 5.73256883164e-07 0)
(7.16856159807e-05 5.28529804778e-07 0)
(7.06700875773e-05 4.8699772766e-07 0)
(6.97346919313e-05 4.48397178098e-07 0)
(6.88738073268e-05 4.12486803103e-07 0)
(6.80822722622e-05 3.79047743079e-07 0)
(6.73553398366e-05 3.47884256904e-07 0)
(6.66886303736e-05 3.18824862696e-07 0)
(6.60780809422e-05 2.91724297501e-07 0)
(6.55198897544e-05 2.66466682159e-07 0)
(6.50104525133e-05 2.42970405394e-07 0)
(6.45462865438e-05 2.21195457596e-07 0)
(6.41239367453e-05 2.01154274387e-07 0)
(6.37398547395e-05 1.82927698652e-07 0)
(6.33902384811e-05 1.66688554691e-07 0)
(6.30708131006e-05 1.52736842726e-07 0)
(6.27765231479e-05 1.41553143124e-07 0)
(6.25010887396e-05 1.33881308446e-07 0)
(6.22363484029e-05 1.30859074786e-07 0)
(6.1971262555e-05 1.34226816107e-07 0)
(6.16903795929e-05 1.46656179574e-07 0)
(6.13715022011e-05 1.72221232702e-07 0)
(6.09825007587e-05 2.16780217265e-07 0)
(6.04789714831e-05 2.86749052108e-07 0)
(5.98243200837e-05 3.6790233151e-07 0)
(0.00121018103892 0.000302878400023 0)
(0.00116034779717 0.000315195650528 0)
(0.00102701276213 0.000238107805696 0)
(0.000887638270038 0.000171767309389 0)
(0.000767040164667 0.000124475777691 0)
(0.000668692191154 9.19606133848e-05 0)
(0.000589892329561 6.94975111881e-05 0)
(0.000526817906638 5.36760572916e-05 0)
(0.000476035300479 4.22590520552e-05 0)
(0.000434812109308 3.38125904616e-05 0)
(0.00040106468721 2.74144210563e-05 0)
(0.000373224032708 2.24622523487e-05 0)
(0.000350107525248 1.85545620045e-05 0)
(0.000330817190973 1.54175360149e-05 0)
(0.000314664258764 1.28601151984e-05 0)
(0.000301114630017 1.07459831783e-05 0)
(0.000289749736599 8.97580891954e-06 0)
(0.000280238372896 7.47577100211e-06 0)
(0.000272316272383 6.18999207572e-06 0)
(0.000265771149997 5.07545140522e-06 0)
(0.000260431624627 4.09849750579e-06 0)
(0.000256158920872 3.23241335582e-06 0)
(0.000252840582899 2.45568669651e-06 0)
(0.00025038566174 1.75076098414e-06 0)
(0.000248720994096 1.10311958548e-06 0)
(0.000247788298844 5.00604879996e-07 0)
(0.000247541892394 -6.7094209328e-08 0)
(0.000247946876214 -6.0883145812e-07 0)
(0.000248977686101 -1.13229955686e-06 0)
(0.000250616919892 -1.64425891856e-06 0)
(0.000252854379178 -2.15071279057e-06 0)
(0.000255686271682 -2.6570369935e-06 0)
(0.000259114529072 -3.16807146786e-06 0)
(0.000263146200359 -3.68817756194e-06 0)
(0.000267792883639 -4.2212625371e-06 0)
(0.000273070159464 -4.77077080854e-06 0)
(0.000278996987814 -5.3396398264e-06 0)
(0.000285595028096 -5.9302172122e-06 0)
(0.000292887838037 -6.54413489723e-06 0)
(0.000300899903629 -7.18213576373e-06 0)
(0.000309655449067 -7.84384901362e-06 0)
(0.000319176974467 -8.52751263621e-06 0)
(0.000329483471617 -9.22964550839e-06 0)
(0.000340588276628 -9.94467841881e-06 0)
(0.000352496535645 -1.0664563145e-05 0)
(0.000365202288805 -1.1378391621e-05 0)
(0.000378685220428 -1.2072072427e-05 0)
(0.000392907180872 -1.27281271693e-05 0)
(0.000407808655145 -1.33256811742e-05 0)
(0.000423305428993 -1.38407262606e-05 0)
(0.000439285773397 -1.42467230475e-05 0)
(0.000455608518351 -1.45155829453e-05 0)
(0.000472102400564 -1.46190270003e-05 0)
(0.000488567035833 -1.45302672695e-05 0)
(0.000504775782651 -1.42259082465e-05 0)
(0.000520480637222 -1.36879315673e-05 0)
(0.000535419145828 -1.29056090752e-05 0)
(0.00054932315021 -1.18771776741e-05 0)
(0.000561928997217 -1.06110900168e-05 0)
(0.000572988640254 -9.12662486453e-06 0)
(0.000582280841871 -7.4536234664e-06 0)
(0.000589621491028 -5.63116131262e-06 0)
(0.000594871953205 -3.70511393523e-06 0)
(0.000597944473103 -1.72483101948e-06 0)
(0.00059880400749 2.60581322112e-07 0)
(0.000597466441312 2.20568803654e-06 0)
(0.000593993787509 4.07119369797e-06 0)
(0.000588487452665 5.82512404379e-06 0)
(0.000581080796268 7.44277132005e-06 0)
(0.000571932027962 8.90575559633e-06 0)
(0.000561218068267 1.02007432535e-05 0)
(0.000549129511624 1.13183117519e-05 0)
(0.00053586645517 1.22522521973e-05 0)
(0.000521634779551 1.2999369395e-05 0)
(0.000506642484687 1.35596597785e-05 0)
(0.000491095831346 1.39366555825e-05 0)
(0.000475195241294 1.41377112799e-05 0)
(0.000459131099765 1.41740524996e-05 0)
(0.000443079739369 1.40604854605e-05 0)
(0.000427199940069 1.38147563067e-05 0)
(0.000411630251267 1.34566333484e-05 0)
(0.000396487345102 1.30068418297e-05 0)
(0.00038186547572 1.24859990114e-05 0)
(0.00036783698339 1.19136788641e-05 0)
(0.000354453674666 1.13076927338e-05 0)
(0.000341748846321 1.0683621863e-05 0)
(0.00032973970324 1.0054593477e-05 0)
(0.000318429939605 9.43126227715e-06 0)
(0.000307812294938 8.82194483365e-06 0)
(0.000297870948064 8.23285290463e-06 0)
(0.00028858366261 7.66837837686e-06 0)
(0.000279923640719 7.13139314853e-06 0)
(0.000271861074693 6.62353843174e-06 0)
(0.000264364409067 6.14548789145e-06 0)
(0.000257401339509 5.69717676454e-06 0)
(0.000250939581903 5.27799465898e-06 0)
(0.000244947447008 4.88694326194e-06 0)
(0.000239394254907 4.5227622498e-06 0)
(0.000234250620363 4.18402760951e-06 0)
(0.000229488636278 3.869226836e-06 0)
(0.000225081978223 3.57681524757e-06 0)
(0.000221005948939 3.30525726053e-06 0)
(0.000217237478015 3.05305593322e-06 0)
(0.000213755088692 2.81877359305e-06 0)
(0.000210538840944 2.60104587207e-06 0)
(0.000207570257641 2.39859108945e-06 0)
(0.0002048322386 2.21021658235e-06 0)
(0.000202308965644 2.03482335882e-06 0)
(0.0001999858003 1.87141027822e-06 0)
(0.000197849174479 1.71907890257e-06 0)
(0.000195886473143 1.57704017074e-06 0)
(0.000194085906739 1.44462417299e-06 0)
(0.000192436369715 1.32129453433e-06 0)
(0.000190927279858 1.20666931181e-06 0)
(0.00018954839126 1.10055090308e-06 0)
(0.000188289571421 1.00296835291e-06 0)
(0.00018714053028 9.14236739235e-07 0)
(0.000186090485879 8.35040214759e-07 0)
(0.000185127748541 7.66547993354e-07 0)
(0.000184239204313 7.10576300034e-07 0)
(0.000183409683259 6.69813756652e-07 0)
(0.000182621219873 6.48130488703e-07 0)
(0.00018185227903 6.50982211074e-07 0)
(0.000181077201592 6.8586126602e-07 0)
(0.000180266602691 7.62492475301e-07 0)
(0.0001793906568 8.91456304323e-07 0)
(0.000178430802872 1.07545613932e-06 0)
(0.000177403761594 1.26088788587e-06 0)
(0.00122478167739 0.000267915681623 0)
(0.00124107317599 0.000383700105831 0)
(0.00119613427137 0.000347877281892 0)
(0.00111330186781 0.000284204720937 0)
(0.00102019729393 0.000225741037588 0)
(0.000930523685615 0.000178716927523 0)
(0.000849714155333 0.000142350581149 0)
(0.000779165518151 0.000114446039695 0)
(0.000718511597327 9.29255889472e-05 0)
(0.000666728825739 7.61520087163e-05 0)
(0.00062264027405 6.29109690805e-05 0)
(0.000585127025661 5.23195998402e-05 0)
(0.000553203190034 4.37375503907e-05 0)
(0.000526030556081 3.66975088459e-05 0)
(0.000502908758848 3.0854865028e-05 0)
(0.000483257322911 2.59522915134e-05 0)
(0.000466596663505 2.17950471866e-05 0)
(0.000452530813324 1.82337407296e-05 0)
(0.000440732706512 1.51522241555e-05 0)
(0.000430932032826 1.24590102893e-05 0)
(0.00042290537006 1.00811221022e-05 0)
(0.000416468225002 7.95963341426e-06 0)
(0.000411468628642 6.04639735495e-06 0)
(0.000407781979154 4.30161795011e-06 0)
(0.000405306879882 2.69202715636e-06 0)
(0.000403961768651 1.18950210929e-06 0)
(0.00040368217582 -2.299930909e-07 0)
(0.000404418480914 -1.58722162072e-06 0)
(0.000406134062844 -2.90030048348e-06 0)
(0.000408803760243 -4.18518754581e-06 0)
(0.000412412572413 -5.45605302449e-06 0)
(0.000416954539687 -6.72555293775e-06 0)
(0.000422431749342 -8.00501792491e-06 0)
(0.000428853417278 -9.30456460474e-06 0)
(0.000436234997231 -1.06331319038e-05 0)
(0.000444597268835 -1.19984409292e-05 0)
(0.000453965353728 -1.34068738887e-05 0)
(0.000464367605664 -1.48632651989e-05 0)
(0.000475834316706 -1.63705966443e-05 0)
(0.00048839617798 -1.79295885934e-05 0)
(0.00050208243133 -1.95381817072e-05 0)
(0.000516918649245 -2.11909090922e-05 0)
(0.000532924086763 -2.28781687565e-05 0)
(0.000550108563698 -2.45854214676e-05 0)
(0.000568468861419 -2.62923606404e-05 0)
(0.000587984659012 -2.79721282903e-05 0)
(0.000608614091073 -2.95906826347e-05 0)
(0.000630289084307 -3.11064537982e-05 0)
(0.000652910719014 -3.24704468506e-05 0)
(0.000676344956418 -3.36269555343e-05 0)
(0.000700419159203 -3.45150252486e-05 0)
(0.000724919891668 -3.5070743243e-05 0)
(0.000749592497194 -3.52303405154e-05 0)
(0.000774142899281 -3.49339783518e-05 0)
(0.0007982419545 -3.41299877565e-05 0)
(0.000821532512608 -3.27792547153e-05 0)
(0.00084363913129 -3.08594046783e-05 0)
(0.000864180169099 -2.83684172257e-05 0)
(0.000882781745132 -2.53272679429e-05 0)
(0.000899092801006 -2.17811417063e-05 0)
(0.000912800232007 -1.77987364429e-05 0)
(0.000923642810895 -1.34692748593e-05 0)
(0.000931422505445 -8.8971568306e-06 0)
(0.000936011914205 -4.19471773367e-06 0)
(0.000937356997814 5.2584779827e-07 0)
(0.000935475022832 5.15995908486e-06 0)
(0.000930448471353 9.61612276752e-06 0)
(0.000922416299197 1.38186951362e-05 0)
(0.00091156412363 1.77080235503e-05 0)
(0.000898114686969 2.12386977975e-05 0)
(0.000882319406118 2.43770291316e-05 0)
(0.000864451203753 2.70987705082e-05 0)
(0.000844798350671 2.93876867734e-05 0)
(0.000823658835202 3.12351080023e-05 0)
(0.000801334801246 3.26402305557e-05 0)
(0.000778126779402 3.36107392232e-05 0)
(0.000754327680652 3.41632945666e-05 0)
(0.000730216752225 3.4323516432e-05 0)
(0.000706053858212 3.41252525897e-05 0)
(0.000682074512917 3.36091100688e-05 0)
(0.000658486056004 3.28204014929e-05 0)
(0.000635465233849 3.18067783272e-05 0)
(0.000613157279715 3.06158627069e-05 0)
(0.000591676411868 2.92931525698e-05 0)
(0.000571107531188 2.78803863798e-05 0)
(0.000551508817947 2.64144486142e-05 0)
(0.000532914903313 2.4926804236e-05 0)
(0.000515340313081 2.34433862525e-05 0)
(0.000498782932389 2.19848282233e-05 0)
(0.000483227303841 2.05669281202e-05 0)
(0.000468647634898 1.92012419399e-05 0)
(0.000455010445611 1.78957263458e-05 0)
(0.000442276831235 1.66553724042e-05 0)
(0.000430404345411 1.5482793293e-05 0)
(0.000419348529821 1.43787455526e-05 0)
(0.000409064127621 1.33425757877e-05 0)
(0.000399506022821 1.23725929534e-05 0)
(0.000390629948131 1.14663714298e-05 0)
(0.000382393001388 1.06209926903e-05 0)
(0.000374754006623 9.83323440803e-06 0)
(0.000367673751133 9.09971578823e-06 0)
(0.000361115125088 8.41700732e-06 0)
(0.000355043185578 7.78171221928e-06 0)
(0.000349425162838 7.19052586639e-06 0)
(0.000344230422631 6.64027857674e-06 0)
(0.000339430395601 6.12796621464e-06 0)
(0.000334998481573 5.65077244624e-06 0)
(0.000330909934432 5.20608589172e-06 0)
(0.000327141731111 4.79151504283e-06 0)
(0.000323672426402 4.40490359469e-06 0)
(0.000320481993626 4.04434877482e-06 0)
(0.000317551649642 3.70822536355e-06 0)
(0.000314863661226 3.39521838234e-06 0)
(0.000312401128409 3.10436790093e-06 0)
(0.000310147739138 2.83513008311e-06 0)
(0.000308087488722 2.58745944125e-06 0)
(0.000306204357392 2.36191822563e-06 0)
(0.000304481941012 2.15981968403e-06 0)
(0.000302903035168 1.9834119287e-06 0)
(0.000301449185405 1.83610660352e-06 0)
(0.000300100243083 1.72274707841e-06 0)
(0.000298834020634 1.64988322953e-06 0)
(0.000297626246711 1.6259444199e-06 0)
(0.000296451225001 1.66099832976e-06 0)
(0.000295283961662 1.76521770485e-06 0)
(0.000294105105553 1.94353306503e-06 0)
(0.000292909791164 2.17854765085e-06 0)
(0.000291714279409 2.38034936212e-06 0)
(0.00122191749071 0.000221216511451 0)
(0.00125333607484 0.000382689186984 0)
(0.00125091935867 0.000396243813262 0)
(0.00121310071963 0.00035648922419 0)
(0.00115490537401 0.000304756445964 0)
(0.00108874015707 0.000255540336539 0)
(0.0010220820268 0.000212994824839 0)
(0.000958894880624 0.000177537571531 0)
(0.000901006671952 0.000148376178816 0)
(0.000849039708721 0.000124451145935 0)
(0.000802975342034 0.000104764742591 0)
(0.000762480052257 8.84743569603e-05 0)
(0.000727087247688 7.48994260726e-05 0)
(0.000696295054078 6.35004535033e-05 0)
(0.000669616373715 5.38523909415e-05 0)
(0.000646602394607 4.56201738478e-05 0)
(0.000626851685919 3.85385264068e-05 0)
(0.000610011735227 3.23960561335e-05 0)
(0.000595776746747 2.70229981205e-05 0)
(0.000583883791855 2.22818593387e-05 0)
(0.000574108428562 1.80602939475e-05 0)
(0.000566260361826 1.4265668636e-05 0)
(0.000560179415854 1.08209002198e-05 0)
(0.000555731926344 7.66125036467e-06 0)
(0.000552807574607 4.7318426049e-06 0)
(0.000551316642159 1.98572781631e-06 0)
(0.000551187644336 -6.1762999643e-07 0)
(0.000552365292516 -3.11353912054e-06 0)
(0.000554808733427 -5.53300618304e-06 0)
(0.000558490017955 -7.90346330868e-06 0)
(0.000563392751373 -1.02493215164e-05 0)
(0.000569510876645 -1.25923747439e-05 0)
(0.000576847544798 -1.49520707224e-05 0)
(0.000585414025925 -1.73456566769e-05 0)
(0.000595228612798 -1.9788201448e-05 0)
(0.000606315466351 -2.22924902955e-05 0)
(0.000618703348718 -2.48687844926e-05 0)
(0.000632424185272 -2.75244347566e-05 0)
(0.000647511392852 -3.02633363585e-05 0)
(0.000663997907938 -3.30852148982e-05 0)
(0.000681913847184 -3.59847367174e-05 0)
(0.000701283735232 -3.89504478866e-05 0)
(0.000722123243474 -4.19635627727e-05 0)
(0.000744435401359 -4.49966486278e-05 0)
(0.000768206272323 -4.80122879501e-05 0)
(0.000793400133014 -5.09618446101e-05 0)
(0.000819954259739 -5.37845101657e-05 0)
(0.0008477735108 -5.64068555129e-05 0)
(0.000876724994237 -5.87431483017e-05 0)
(0.000906633218713 -6.06967012505e-05 0)
(0.000937276224635 -6.21624739956e-05 0)
(0.000968383260825 -6.30310495736e-05 0)
(0.000999634584268 -6.31939504374e-05 0)
(0.00103066389725 -6.25500718135e-05 0)
(0.00106106379266 -6.10128344351e-05 0)
(0.0010903943695 -5.85175337784e-05 0)
(0.00111819493546 -5.50283024092e-05 0)
(0.00114399846019 -5.05440755607e-05 0)
(0.0011673481862 -4.51029065327e-05 0)
(0.00118781552968 -3.87838986413e-05 0)
(0.00120501809717 -3.17059753966e-05 0)
(0.00121863634236 -2.40228585246e-05 0)
(0.0012284272021 -1.59141271117e-05 0)
(0.00123423315114 -7.57310601875e-06 0)
(0.00123598563012 8.06671570773e-07 0)
(0.00123370270165 9.04403556857e-06 0)
(0.0012274818325 1.69794623164e-05 0)
(0.00121748949147 2.44798626245e-05 0)
(0.00120394949671 3.14390185675e-05 0)
(0.00118713173154 3.77748950135e-05 0)
(0.00116734216068 4.3425672244e-05 0)
(0.00114491432151 4.83461557674e-05 0)
(0.00112020192061 5.25055406419e-05 0)
(0.00109357194499 5.58867288065e-05 0)
(0.00106539776311 5.84868077594e-05 0)
(0.00103605192659 6.03180013469e-05 0)
(0.00100589867481 6.14083629251e-05 0)
(0.000975286409041 6.18016214556e-05 0)
(0.000944540585139 6.15558441326e-05 0)
(0.000913957543093 6.07408842235e-05 0)
(0.000883799737594 5.94348680489e-05 0)
(0.000854292679016 5.77201709653e-05 0)
(0.000825623685471 5.56793965796e-05 0)
(0.000797942339817 5.33918115773e-05 0)
(0.000771362385229 5.09305427259e-05 0)
(0.000745964701148 4.83606705104e-05 0)
(0.0007218009777 4.5738202282e-05 0)
(0.000698897735656 4.31098033598e-05 0)
(0.000677260399852 4.05131115624e-05 0)
(0.000656877207494 3.79774507429e-05 0)
(0.000637722804855 3.55247770749e-05 0)
(0.000619761448162 3.31707244823e-05 0)
(0.000602949773508 3.09256516872e-05 0)
(0.000587239136105 2.87956266945e-05 0)
(0.000572577542704 2.67833116273e-05 0)
(0.00055891121486 2.48887312214e-05 0)
(0.000546185827355 2.31099222172e-05 0)
(0.000534347467692 2.14434697795e-05 0)
(0.000523343360883 1.98849419624e-05 0)
(0.000513122400098 1.84292355058e-05 0)
(0.000503635519142 1.70708466435e-05 0)
(0.00049483593778 1.58040800101e-05 0)
(0.000486679306021 1.46232075072e-05 0)
(0.000479123768973 1.35225875955e-05 0)
(0.000472129969702 1.24967540188e-05 0)
(0.000465661003948 1.15404816672e-05 0)
(0.000459682337319 1.06488361312e-05 0)
(0.000454161692888 9.81721258804e-06 0)
(0.000449068914697 9.04136895557e-06 0)
(0.000444375810656 8.31745777974e-06 0)
(0.000440055976529 7.64206105807e-06 0)
(0.000436084601207 7.01223213759e-06 0)
(0.000432438252207 6.42554893307e-06 0)
(0.000429094639484 5.8801829316e-06 0)
(0.000426032355259 5.37498869642e-06 0)
(0.000423230588107 4.90961863219e-06 0)
(0.000420668811532 4.48466724046e-06 0)
(0.000418326451822 4.10184710671e-06 0)
(0.000416182548809 3.76419373838e-06 0)
(0.000414215439246 3.4762844987e-06 0)
(0.0004124025204 3.24443071083e-06 0)
(0.000410720197846 3.07674491937e-06 0)
(0.000409144194773 2.98285998051e-06 0)
(0.000407650503973 2.97279545633e-06 0)
(0.000406217369753 3.0538182281e-06 0)
(0.000404828563894 3.22259452485e-06 0)
(0.000403476792079 3.44657236155e-06 0)
(0.000402159399306 3.62522913548e-06 0)
(0.00121691235223 0.000182386666379 0)
(0.00124899051768 0.000358022275983 0)
(0.00126543214708 0.000406885802505 0)
(0.00125542919932 0.000393668813516 0)
(0.00122476258176 0.000356438811727 0)
(0.0011817472212 0.000313038540183 0)
(0.00113293703221 0.000270964932371 0)
(0.00108271060846 0.000232981025841 0)
(0.00103375803628 0.000199773497303 0)
(0.000987612235831 0.00017116658312 0)
(0.000945057446112 0.000146668453873 0)
(0.000906411757195 0.000125711616525 0)
(0.000871713593414 0.000107753127131 0)
(0.000840841528703 9.23110031857e-05 0)
(0.00081358974644 7.89722964772e-05 0)
(0.00078971466325 6.73893234017e-05 0)
(0.000768963084994 5.72716568143e-05 0)
(0.000751088672572 4.83772821131e-05 0)
(0.000735861089926 4.05043368285e-05 0)
(0.000723070629907 3.3483929421e-05 0)
(0.000712530093129 2.7174118172e-05 0)
(0.000704075039539 2.14549593638e-05 0)
(0.000697563113718 1.62244763449e-05 0)
(0.00069287287815 1.13953948518e-05 0)
(0.000689902419208 6.89250484846e-06 0)
(0.000688567882933 2.65053091347e-06 0)
(0.000688802029444 -1.38758455073e-06 0)
(0.000690552849021 -5.27205443234e-06 0)
(0.000693782257841 -9.04734199908e-06 0)
(0.000698464876044 -1.27530308581e-05 0)
(0.000704586873459 -1.64244846282e-05 0)
(0.000712144859397 -2.00933218141e-05 0)
(0.000721144788345 -2.3787718827e-05 0)
(0.000731600847272 -2.75325457648e-05 0)
(0.000743534284548 -3.13493326784e-05 0)
(0.000756972134946 -3.52560581937e-05 0)
(0.00077194578954 -3.92667477241e-05 0)
(0.000788489353696 -4.33908653926e-05 0)
(0.000806637731305 -4.76324830638e-05 0)
(0.000826424369461 -5.19892126031e-05 0)
(0.000847878596361 -5.64508953802e-05 0)
(0.000871022487825 -6.0998058062e-05 0)
(0.000895867206883 -6.56001683983e-05 0)
(0.000922408779409 -7.02137611744e-05 0)
(0.000950623300323 -7.47805544082e-05 0)
(0.00098046161336 -7.9225738494e-05 0)
(0.00101184357624 -8.34566921335e-05 0)
(0.00104465211386 -8.73624482631e-05 0)
(0.00107872737259 -9.08142837191e-05 0)
(0.00111386141022 -9.36678140989e-05 0)
(0.00114979397133 -9.57669146979e-05 0)
(0.00118620998056 -9.6949641373e-05 0)
(0.00122273940596 -9.70560953151e-05 0)
(0.00125896007519 -9.59378979312e-05 0)
(0.00129440386176 -9.34686801997e-05 0)
(0.00132856641588 -8.95548100764e-05 0)
(0.00136092033777 -8.41455063825e-05 0)
(0.00139093141996 -7.72414722336e-05 0)
(0.00141807732551 -6.89011364524e-05 0)
(0.00144186778927 -5.92434722209e-05 0)
(0.00146186508517 -4.84462626358e-05 0)
(0.00147770311637 -3.67388461751e-05 0)
(0.00148910318872 -2.43890710776e-05 0)
(0.0014958845566 -1.16854795306e-05 0)
(0.0014979683961 1.08272497169e-06 0)
(0.00149537496393 1.36443399799e-05 0)
(0.00148821502746 2.5759959374e-05 0)
(0.00147667766296 3.72290654579e-05 0)
(0.00146101681221 4.78906539926e-05 0)
(0.00144153853903 5.76192889729e-05 0)
(0.00141859001023 6.6319367263e-05 0)
(0.00139255026855 7.3920029213e-05 0)
(0.00136382222773 8.03720949104e-05 0)
(0.0013328251167 8.56472457032e-05 0)
(0.00129998674164 8.97388309814e-05 0)
(0.00126573525457 9.2663283765e-05 0)
(0.00123049047238 9.44610955776e-05 0)
(0.00119465509654 9.51965108122e-05 0)
(0.00115860638971 9.49554654295e-05 0)
(0.00112268893756 9.38417367995e-05 0)
(0.00108720904946 9.19716887417e-05 0)
(0.001052431157 8.94682811653e-05 0)
(0.00101857631425 8.64551029371e-05 0)
(0.000985822657519 8.30510884351e-05 0)
(0.000954307500175 7.93663593413e-05 0)
(0.000924130640643 7.54993798827e-05 0)
(0.000895358445472 7.15353948291e-05 0)
(0.000868028311491 6.75459711349e-05 0)
(0.000842153185616 6.35893908068e-05 0)
(0.000817725905719 5.9711630164e-05 0)
(0.000794723205941 5.59476875575e-05 0)
(0.000773109297156 5.23230680347e-05 0)
(0.00075283898511 4.88552844385e-05 0)
(0.000733860325828 4.55552812465e-05 0)
(0.00071611684217 4.24287257232e-05 0)
(0.000699549339864 3.94771397894e-05 0)
(0.000684097368344 3.66988660567e-05 0)
(0.000669700373733 3.40898744077e-05 0)
(0.000656298589863 3.16444229597e-05 0)
(0.000643833709897 2.93555908993e-05 0)
(0.000632249376655 2.7215701721e-05 0)
(0.000621491524892 2.52166549097e-05 0)
(0.000611508603941 2.33501826909e-05 0)
(0.000602251704548 2.16080466966e-05 0)
(0.000593674609511 1.99821874873e-05 0)
(0.000585733784004 1.8464838096e-05 0)
(0.000578388318143 1.70486111578e-05 0)
(0.000571599831524 1.57265678655e-05 0)
(0.000565332346977 1.44922759206e-05 0)
(0.000559552138704 1.33398628511e-05 0)
(0.000554227558219 1.22640705048e-05 0)
(0.000549328840141 1.12603161535e-05 0)
(0.000544827888853 1.03247653972e-05 0)
(0.000540698046536 9.45442180313e-06 0)
(0.000536913843216 8.64723774844e-06 0)
(0.000533450730512 7.90224987862e-06 0)
(0.000530284803312 7.21974025354e-06 0)
(0.000527392518246 6.60141938083e-06 0)
(0.000524750425662 6.05061757962e-06 0)
(0.000522334944362 5.57245202328e-06 0)
(0.000520122227116 5.17389974497e-06 0)
(0.000518088191276 4.86363468555e-06 0)
(0.000516208820238 4.65134464538e-06 0)
(0.000514460861892 4.54596015697e-06 0)
(0.000512822991394 4.55165836087e-06 0)
(0.000511277120846 4.65943082913e-06 0)
(0.000509808049333 4.83057936425e-06 0)
(0.00050839627105 4.97039315328e-06 0)
(0.0012128196765 0.000152654635405 0)
(0.00124160615038 0.000326889660857 0)
(0.00126551602021 0.00039766690955 0)
(0.00127162535893 0.000406781306993 0)
(0.00126019754484 0.000385420741514 0)
(0.00123587664194 0.000351392865461 0)
(0.00120350133729 0.000313796092347 0)
(0.00116690551724 0.00027697210127 0)
(0.00112882540173 0.00024281510118 0)
(0.00109110200082 0.000211994172255 0)
(0.00105491481031 0.000184582836679 0)
(0.00102097709214 0.000160380632597 0)
(0.000989683153852 0.000139076205019 0)
(0.00096121449284 0.000120328643039 0)
(0.000935614435639 0.000103806488257 0)
(0.000912839788781 8.92048540147e-05 0)
(0.000892796130563 7.62513552188e-05 0)
(0.000875361633403 6.47064860628e-05 0)
(0.000860402925442 5.43614165149e-05 0)
(0.000847785469525 4.50347589846e-05 0)
(0.000837380192268 3.65690962787e-05 0)
(0.000829067566303 2.88276548008e-05 0)
(0.000822739976552 2.16912908626e-05 0)
(0.000818302941399 1.50558458709e-05 0)
(0.000815675578813 8.82987064707e-06 0)
(0.000814790581796 2.93269421968e-06 0)
(0.000815593880319 -2.70719651219e-06 0)
(0.000818044102404 -8.15348713743e-06 0)
(0.000822111910466 -1.34631285157e-05 0)
(0.000827779259553 -1.86872132545e-05 0)
(0.000835038593808 -2.38716347611e-05 0)
(0.000843891984196 -2.90575480506e-05 0)
(0.000854350199291 -3.42816358187e-05 0)
(0.000866431689889 -3.95761765801e-05 0)
(0.000880161458911 -4.49689055035e-05 0)
(0.000895569779798 -5.04826530263e-05 0)
(0.000912690718854 -5.61347419178e-05 0)
(0.000931560409866 -6.19361207384e-05 0)
(0.000952215022981 -6.78902118027e-05 0)
(0.000974688364799 -7.39914561989e-05 0)
(0.000999009044109 -8.02235493812e-05 0)
(0.00102519713899 -8.65573808577e-05 0)
(0.00105326030854 -9.2948723783e-05 0)
(0.0010831893092 -9.93357677501e-05 0)
(0.00111495290549 -0.000105636653093 0)
(0.00114849221227 -0.000111747247078 0)
(0.00118371457545 -0.000117539496607 0)
(0.00122048719309 -0.000122860785732 0)
(0.00125863079879 -0.000127534797214 0)
(0.0012979138671 -0.000131364393143 0)
(0.00133804793747 -0.000134136953984 0)
(0.00137868475875 -0.00013563241992 0)
(0.00141941599217 -0.000135633963599 0)
(0.00145977614033 -0.000133940835936 0)
(0.00149924918115 -0.00013038255954 0)
(0.00153727910489 -0.000124833399728 0)
(0.0015732842393 -0.000117225965463 0)
(0.00160667496402 -0.000107562813785 0)
(0.00163687416984 -9.59249012681e-05 0)
(0.00166333954938 -8.24755469026e-05 0)
(0.00168558642465 -6.74583564455e-05 0)
(0.00170320931138 -5.11876686275e-05 0)
(0.00171589994775 -3.40309566471e-05 0)
(0.00172345940855 -1.63844229026e-05 0)
(0.00172580253068 1.35470541881e-06 0)
(0.00172295425931 1.88140606211e-05 0)
(0.00171503926232 3.56651684301e-05 0)
(0.00170226748998 5.16329880007e-05 0)
(0.00168491870525 6.64963600709e-05 0)
(0.00166332834735 8.00822054187e-05 0)
(0.00163787582604 9.22574906496e-05 0)
(0.00160897509943 0.000102922362166 0)
(0.00157706663653 0.000112006252129 0)
(0.00154260971118 0.000119467109878 0)
(0.00150607424136 0.000125292795407 0)
(0.00146793182968 0.000129503200722 0)
(0.00142864610082 0.0001321516714 0)
(0.0013886627914 0.000133324601325 0)
(0.00134840028486 0.000133138568923 0)
(0.00130824136167 0.000131734989079 0)
(0.00126852683351 0.000129272833203 0)
(0.00122955148127 0.000125920362121 0)
(0.001191562399 0.000121846928155 0)
(0.00115475955039 0.000117215750326 0)
(0.00111929813609 0.000112178251593 0)
(0.00108529227262 0.000106870193991 0)
(0.00105281948141 0.000101409551405 0)
(0.00102192554985 9.58958654012e-05 0)
(0.000992629419957 9.04107386523e-05 0)
(0.000964927859297 8.501911028e-05 0)
(0.00093879975766 7.97709973237e-05 0)
(0.000914209964239 7.47034499928e-05 0)
(0.000891112633128 6.98425361775e-05 0)
(0.000869454081459 6.52052319859e-05 0)