/*--------------------------------*- C++ -*----------------------------------*\
  =========                 |
  \\      /  F ield         | OpenFOAM: The Open Source CFD Toolbox
   \\    /   O peration     | Website:  https://openfoam.org
    \\  /    A nd           | Version:  7
     \\/     M anipulation  |
\*---------------------------------------------------------------------------*/
FoamFile
{
    version     2.0;
    format      ascii;
    class       volScalarField;
    location    "1080";
    object      Ci;
}
// * * * * * * * * * * * * * * * * * * * * * * * * * * * * * * * * * * * * * //

dimensions      [0 -3 0 0 1 0 0];

internalField   nonuniform List<scalar> 
8192
(
9.99999999871
10.0000000046
10.0000000158
10.0000000416
10.0000000962
10.0000001735
10.0000002543
10.0000003359
10.0000004191
10.0000005046
10.0000005942
10.0000006879
10.000000787
10.0000008905
10.0000009989
10.0000011105
10.0000012255
10.0000013411
10.0000014573
10.0000015707
10.0000016809
10.0000017835
10.000001878
10.000001961
10.0000020331
10.0000020902
10.0000021325
10.000002155
10.0000021577
10.0000021356
10.0000020895
10.0000020142
10.0000019106
10.0000017732
10.0000016028
10.0000013939
10.0000011479
10.0000008595
10.0000005315
10.0000001597
9.99999974908
9.99999929732
9.99999881202
9.99999829274
9.99999774977
9.99999718411
9.99999660811
9.99999602332
9.99999544333
9.99999486949
9.99999431625
9.99999378472
9.99999329072
9.99999283593
9.99999243862
9.99999210181
9.99999184632
9.99999167566
9.99999161101
9.9999916532
9.99999181984
9.99999210573
9.99999252239
9.99999305785
9.99999371804
9.99999448578
9.99999536238
9.99999632612
9.99999737347
9.99999847856
9.99999963419
10.0000008132
10.000002008
10.0000031936
10.000004364
10.000005497
10.0000065888
10.0000076202
10.0000085902
10.0000094843
10.0000103052
10.0000110437
10.0000117064
10.0000122887
10.0000128004
10.0000132398
10.0000136184
10.0000139361
10.0000142048
10.0000144248
10.0000146073
10.0000147525
10.0000148705
10.0000149603
10.0000150303
10.0000150767
10.0000150996
10.0000150952
10.0000150723
10.0000150305
10.0000149777
10.000014912
10.0000148398
10.0000147575
10.0000146701
10.0000145733
10.0000144713
10.0000143593
10.0000142411
10.0000141119
10.0000139752
10.0000138262
10.0000136684
10.0000134969
10.0000133152
10.0000131183
10.0000129093
10.0000126828
10.0000124415
10.0000121798
10.0000119002
10.0000115978
10.0000112771
10.0000109371
10.0000105882
10.0000102403
10.0000099199
10.0000096949
10.0000000006
10.0000000069
10.0000000163
10.0000000375
10.000000072
10.0000001192
10.0000001768
10.0000002432
10.000000318
10.0000004002
10.00000049
10.0000005866
10.0000006901
10.0000007995
10.0000009147
10.0000010339
10.0000011569
10.0000012812
10.0000014063
10.000001529
10.0000016487
10.00000176
10.0000018628
10.0000019552
10.0000020379
10.0000021077
10.0000021641
10.0000022031
10.0000022242
10.0000022238
10.0000022029
10.0000021577
10.0000020886
10.0000019916
10.0000018668
10.0000017096
10.0000015206
10.0000012956
10.0000010361
10.0000007392
10.0000004085
10.0000000429
9.99999964822
9.99999922547
9.99999878276
9.99999832225
9.99999785341
9.99999737858
9.99999690751
9.99999644179
9.99999599086
9.99999555549
9.99999514531
9.99999476123
9.99999441424
9.99999410658
9.99999385134
9.99999365211
9.99999352304
9.99999346732
9.99999349772
9.99999361476
9.99999382798
9.9999941342
9.99999453926
9.99999503636
9.99999562748
9.99999630184
9.9999970572
9.999997879
9.99999876173
9.99999968882
10.0000006535
10.0000016391
10.0000026386
10.0000036357
10.0000046234
10.0000055863
10.0000065184
10.0000074066
10.0000082474
10.000009031
10.0000097574
10.0000104205
10.0000110235
10.0000115633
10.0000120458
10.00001247
10.0000128433
10.000013166
10.000013446
10.0000136839
10.0000138876
10.0000140573
10.0000142
10.0000143151
10.0000143887
10.0000144258
10.0000144386
10.0000144294
10.0000144055
10.0000143666
10.0000143178
10.0000142572
10.0000141886
10.0000141093
10.0000140224
10.0000139247
10.000013819
10.0000137018
10.0000135759
10.0000134377
10.0000132899
10.0000131288
10.000012957
10.0000127709
10.0000125726
10.000012358
10.0000121291
10.0000118812
10.0000116161
10.0000113299
10.0000110256
10.0000107015
10.0000103627
10.0000100206
10.0000096949
10.0000094425
10.0000000052
10.0000000195
10.0000000326
10.0000000515
10.0000000808
10.000000119
10.0000001662
10.0000002219
10.0000002865
10.0000003591
10.0000004401
10.0000005284
10.0000006242
10.0000007262
10.0000008349
10.0000009485
10.0000010675
10.0000011898
10.0000013157
10.0000014427
10.0000015712
10.0000016979
10.000001823
10.0000019434
10.0000020595
10.0000021676
10.0000022679
10.0000023562
10.0000024323
10.0000024918
10.0000025347
10.0000025564
10.0000025569
10.0000025316
10.0000024806
10.0000023996
10.0000022897
10.000002147
10.0000019741
10.0000017684
10.0000015344
10.0000012706
10.0000009836
10.0000006727
10.0000003459
10.0000000029
9.99999965214
9.99999929246
9.99999893223
9.99999856899
9.9999982108
9.99999785422
9.99999750776
9.99999716812
9.99999684557
9.9999965382
9.99999625883
9.9999960073
9.99999579837
9.99999563248
9.99999552442
9.99999547341
9.99999549244
9.99999557835
9.99999574145
9.99999597586
9.99999628876
9.99999667136
9.99999712742
9.99999764541
9.99999822621
9.99999885667
9.99999953597
10.0000002503
10.0000009978
10.0000017642
10.0000025463
10.0000033298
10.0000041111
10.0000048768
10.0000056242
10.0000063418
10.0000070287
10.000007676
10.0000082848
10.0000088485
10.0000093702
10.0000098456
10.0000102792
10.0000106683
10.0000110186
10.0000113282
10.0000116034
10.0000118429
10.0000120529
10.0000122325
10.0000123843
10.0000125057
10.000012603
10.0000126746
10.0000127269
10.0000127577
10.0000127726
10.0000127689
10.0000127517
10.0000127178
10.0000126717
10.0000126101
10.0000125373
10.0000124497
10.0000123516
10.0000122391
10.0000121164
10.0000119798
10.0000118331
10.0000116725
10.0000115017
10.0000113164
10.0000111197
10.000010907
10.0000106812
10.0000104377
10.0000101807
10.0000099074
10.0000096173
10.0000093194
10.000009015
10.0000087954
10.0000000078
10.0000000309
10.0000000443
10.0000000662
10.0000000987
10.0000001399
10.0000001883
10.0000002439
10.0000003079
10.0000003804
10.0000004618
10.0000005517
10.00000065
10.0000007559
10.0000008693
10.0000009891
10.000001115
10.0000012457
10.0000013807
10.0000015188
10.0000016592
10.0000018002
10.0000019411
10.0000020799
10.0000022156
10.0000023459
10.0000024695
10.0000025838
10.0000026872
10.0000027771
10.0000028515
10.0000029083
10.0000029453
10.000002961
10.000002953
10.000002921
10.000002863
10.0000027797
10.0000026701
10.0000025357
10.0000023771
10.000002196
10.0000019947
10.0000017747
10.0000015396
10.0000012905
10.0000010314
10.0000007627
10.0000004883
10.0000002081
9.99999992556
9.99999964041
9.99999935641
9.99999907378
9.99999879741
9.99999852894
9.99999827502
9.99999803904
9.99999782908
9.99999764939
9.99999750812
9.99999740878
9.99999735803
9.99999735743
9.99999741139
9.99999751913
9.99999768268
9.99999789887
9.99999816754
9.99999848368
9.99999884581
9.99999924808
9.9999996887
10.0000001616
10.0000006648
10.0000011916
10.000001739
10.0000022997
10.0000028698
10.0000034419
10.0000040125
10.0000045744
10.0000051249
10.000005658
10.0000061717
10.0000066613
10.0000071257
10.0000075615
10.0000079686
10.0000083446
10.0000086907
10.0000090053
10.0000092902
10.0000095447
10.0000097712
10.0000099695
10.0000101418
10.0000102877
10.0000104097
10.0000105079
10.000010585
10.0000106408
10.0000106781
10.0000106966
10.0000106988
10.0000106844
10.0000106556
10.0000106119
10.0000105556
10.0000104859
10.0000104051
10.0000103125
10.00001021
10.0000100969
10.0000099752
10.0000098439
10.0000097047
10.0000095563
10.0000094002
10.0000092344
10.0000090598
10.0000088744
10.000008679
10.0000084737
10.0000082568
10.0000080425
10.0000077923
10.0000077149
10.0000000166
10.0000000472
10.0000000679
10.0000000918
10.0000001259
10.0000001688
10.0000002195
10.0000002766
10.000000341
10.0000004137
10.0000004955
10.0000005865
10.0000006867
10.0000007955
10.0000009128
10.0000010375
10.000001169
10.0000013062
10.0000014483
10.0000015939
10.0000017419
10.0000018909
10.0000020394
10.0000021859
10.0000023288
10.0000024664
10.0000025966
10.0000027182
10.0000028283
10.0000029266
10.000003009
10.0000030769
10.0000031248
10.0000031564
10.0000031644
10.0000031555
10.0000031207
10.0000030693
10.0000029919
10.0000028985
10.0000027817
10.0000026498
10.000002499
10.0000023348
10.0000021569
10.0000019681
10.0000017703
10.0000015647
10.000001354
10.0000011383
10.0000009204
10.0000006998
10.0000004795
10.0000002593
10.0000000426
9.99999983045
9.99999962789
9.99999943751
9.99999926591
9.99999911678
9.99999899708
9.99999891
9.99999886118
9.99999885187
9.99999888529
9.9999989601
9.99999907687
9.99999923191
9.99999942377
9.99999964748
9.99999990099
10.0000001794
10.0000004811
10.000000802
10.000001141
10.0000014943
10.0000018603
10.000002235
10.0000026166
10.0000030011
10.0000033868
10.0000037701
10.0000041494
10.0000045216
10.0000048852
10.0000052373
10.0000055766
10.0000059004
10.0000062079
10.0000064967
10.0000067664
10.0000070153
10.0000072434
10.0000074496
10.0000076344
10.0000077972
10.0000079391
10.0000080597
10.0000081604
10.0000082412
10.0000083037
10.0000083481
10.0000083762
10.0000083883
10.0000083863
10.0000083704
10.0000083425
10.0000083028
10.0000082533
10.0000081942
10.0000081273
10.0000080527
10.0000079722
10.0000078859
10.0000077954
10.0000077006
10.000007603
10.0000075019
10.0000073986
10.0000072919
10.0000071823
10.0000070682
10.0000069496
10.0000068268
10.0000066947
10.0000065807
10.0000064084
10.0000064619
10.0000000175
10.0000000547
10.0000000768
10.0000001057
10.000000145
10.0000001928
10.0000002475
10.0000003087
10.0000003755
10.0000004492
10.0000005311
10.0000006217
10.0000007214
10.0000008298
10.0000009465
10.0000010708
10.0000012019
10.0000013386
10.00000148
10.0000016247
10.0000017713
10.0000019184
10.0000020642
10.0000022077
10.0000023462
10.0000024796
10.0000026038
10.0000027208
10.0000028236
10.0000029183
10.0000029931
10.0000030606
10.0000031016
10.0000031386
10.000003142
10.0000031461
10.0000031111
10.0000030813
10.0000030104
10.0000029467
10.0000028455
10.0000027497
10.0000026251
10.0000025014
10.0000023597
10.0000022151
10.0000020609
10.0000019026
10.0000017396
10.0000015728
10.0000014033
10.0000012307
10.0000010561
10.0000008795
10.0000007025
10.0000005267
10.0000003556
10.0000001929
10.0000000444
9.99999991574
9.99999981319
9.99999974224
9.99999970771
9.99999971261
9.99999975848
9.99999984454
9.9999999686
10.0000001264
10.0000003133
10.0000005236
10.0000007526
10.0000009951
10.000001248
10.0000015073
10.0000017713
10.0000020369
10.0000023027
10.0000025658
10.0000028252
10.0000030787
10.000003326
10.0000035657
10.0000037981
10.0000040221
10.0000042383
10.0000044454
10.0000046439
10.0000048323
10.0000050108
10.0000051779
10.0000053336
10.0000054767
10.000005607
10.0000057237
10.000005827
10.0000059161
10.0000059917
10.0000060532
10.0000061017
10.0000061371
10.0000061604
10.000006172
10.0000061733
10.0000061645
10.0000061473
10.0000061221
10.0000060905
10.0000060532
10.0000060116
10.0000059665
10.0000059192
10.0000058703
10.0000058212
10.0000057724
10.000005725
10.0000056792
10.000005636
10.0000055951
10.0000055573
10.0000055216
10.0000054883
10.0000054554
10.0000054232
10.0000053907
10.0000053531
10.0000053351
10.0000052672
10.0000053806
10.0000000225
10.0000000653
10.0000000945
10.000000125
10.0000001655
10.0000002151
10.000000272
10.0000003353
10.0000004049
10.0000004799
10.0000005619
10.0000006517
10.0000007499
10.0000008561
10.0000009699
10.0000010905
10.0000012172
10.0000013488
10.0000014839
10.0000016216
10.0000017599
10.0000018983
10.0000020336
10.0000021669
10.0000022926
10.0000024151
10.0000025242
10.0000026314
10.0000027167
10.0000028056
10.0000028601
10.0000029295
10.0000029471
10.0000029977
10.0000029742
10.0000030073
10.0000029429
10.0000029579
10.000002859
10.0000028519
10.000002731
10.0000026956
10.0000025667
10.0000024994
10.0000023716
10.0000022752
10.0000021493
10.000002032
10.0000019032
10.0000017725
10.0000016357
10.0000014938
10.0000013464
10.0000011935
10.0000010361
10.0000008763
10.0000007172
10.0000005635
10.0000004215
10.0000002978
10.0000002
10.0000001348
10.0000001079
10.0000001233
10.0000001826
10.0000002848
10.0000004264
10.0000006018
10.0000008047
10.0000010281
10.0000012658
10.0000015118
10.0000017615
10.0000020107
10.0000022562
10.0000024949
10.000002724
10.000002941
10.0000031438
10.000003331
10.000003502
10.0000036566
10.0000037953
10.0000039188
10.0000040283
10.0000041246
10.0000042088
10.0000042817
10.0000043442
10.0000043969
10.0000044403
10.0000044748
10.0000045008
10.0000045186
10.0000045286
10.0000045311
10.0000045266
10.0000045156
10.0000044985
10.0000044761
10.000004449
10.000004418
10.0000043841
10.0000043481
10.0000043109
10.0000042737
10.0000042373
10.0000042028
10.0000041711
10.0000041431
10.0000041198
10.000004102
10.0000040902
10.0000040852
10.0000040873
10.0000040969
10.0000041142
10.000004139
10.0000041713
10.0000042098
10.0000042549
10.0000043029
10.0000043567
10.0000044086
10.0000044661
10.0000045247
10.0000045795
10.0000046929
10.0000000192
10.0000000665
10.0000000967
10.0000001317
10.0000001769
10.0000002305
10.0000002911
10.0000003576
10.0000004301
10.0000005081
10.0000005915
10.0000006816
10.0000007789
10.0000008833
10.0000009944
10.0000011112
10.0000012329
10.0000013584
10.000001486
10.0000016155
10.0000017436
10.000001872
10.0000019943
10.0000021168
10.0000022264
10.0000023396
10.0000024286
10.0000025316
10.0000025909
10.0000026864
10.000002705
10.0000028002
10.0000027659
10.0000028716
10.0000027733
10.0000028998
10.0000027329
10.0000028826
10.000002657
10.0000028162
10.0000025605
10.0000026984
10.0000024535
10.0000025349
10.0000023338
10.0000023402
10.0000021891
10.0000021296
10.0000020073
10.0000019062
10.0000017852
10.0000016598
10.0000015243
10.00000138
10.0000012276
10.0000010692
10.0000009086
10.0000007512
10.0000006038
10.0000004751
10.0000003734
10.0000003077
10.0000002848
10.0000003102
10.0000003855
10.0000005097
10.0000006771
10.0000008807
10.0000011108
10.0000013595
10.0000016184
10.0000018815
10.0000021431
10.0000023986
10.0000026454
10.0000028798
10.000003099
10.0000032991
10.0000034781
10.0000036335
10.0000037652
10.0000038724
10.0000039568
10.0000040189
10.0000040619
10.0000040857
10.0000040927
10.0000040842
10.0000040626
10.0000040291
10.0000039859
10.0000039338
10.0000038749
10.0000038099
10.0000037404
10.0000036674
10.0000035923
10.0000035159
10.0000034396
10.0000033641
10.0000032909
10.0000032206
10.0000031546
10.0000030938
10.0000030394
10.0000029921
10.0000029531
10.0000029231
10.0000029032
10.0000028939
10.0000028959
10.0000029096
10.0000029356
10.0000029738
10.0000030246
10.0000030875
10.0000031627
10.0000032488
10.0000033464
10.0000034522
10.0000035685
10.0000036871
10.0000038175
10.0000039381
10.0000040818
10.0000041915
10.0000043657
10.0000044491
10.0000000234
10.0000000748
10.000000112
10.0000001479
10.0000001931
10.0000002473
10.0000003091
10.0000003773
10.0000004514
10.0000005316
10.0000006167
10.0000007076
10.0000008048
10.0000009083
10.0000010172
10.0000011313
10.0000012485
10.0000013691
10.0000014897
10.0000016123
10.0000017303
10.000001851
10.0000019596
10.0000020758
10.0000021666
10.0000022789
10.0000023408
10.0000024558
10.0000024725
10.0000026052
10.0000025531
10.0000027302
10.0000025765
10.0000028351
10.000002542
10.0000029217
10.0000024591
10.0000029823
10.0000023508
10.0000029964
10.0000022509
10.0000029361
10.0000021896
10.0000027853
10.0000021688
10.0000025608
10.0000021515
10.0000023087
10.000002081
10.0000020653
10.0000019259
10.0000018248
10.0000016942
10.0000015564
10.0000014067
10.0000012481
10.0000010844
10.0000009221
10.0000007682
10.0000006321
10.0000005237
10.0000004535
10.0000004305
10.0000004613
10.0000005478
10.0000006885
10.0000008759
10.0000011011
10.0000013524
10.0000016208
10.0000018968
10.0000021736
10.0000024464
10.000002711
10.0000029637
10.0000032012
10.0000034193
10.0000036144
10.0000037835
10.0000039242
10.0000040353
10.0000041167
10.0000041694
10.0000041948
10.0000041954
10.0000041737
10.0000041322
10.000004074
10.0000040013
10.0000039146
10.000003816
10.0000037082
10.0000035931
10.0000034729
10.0000033494
10.0000032248
10.0000031006
10.0000029788
10.0000028608
10.0000027485
10.000002643
10.0000025461
10.0000024589
10.0000023828
10.0000023188
10.0000022682
10.0000022316
10.0000022101
10.0000022042
10.0000022147
10.0000022417
10.0000022856
10.0000023463
10.0000024237
10.0000025175
10.000002627
10.0000027517
10.00000289
10.0000030419
10.000003203
10.0000033771
10.0000035512
10.000003743
10.0000039137
10.0000041269
10.000004267
10.0000045382
10.0000045869
10.0000000196
10.0000000742
10.0000001129
10.0000001532
10.0000002023
10.0000002597
10.0000003241
10.0000003947
10.000000471
10.0000005532
10.0000006406
10.000000733
10.0000008309
10.0000009346
10.0000010426
10.0000011553
10.0000012695
10.0000013871
10.0000015019
10.0000016207
10.0000017294
10.000001847
10.0000019413
10.0000020589
10.0000021267
10.0000022525
10.0000022744
10.0000024288
10.0000023722
10.0000025954
10.000002406
10.0000027666
10.0000023613
10.0000029597
10.0000022285
10.0000031856
10.0000020136
10.0000034327
10.0000017533
10.0000036515
10.0000015223
10.0000037551
10.0000014155
10.0000036542
10.0000014939
10.0000033239
10.0000017209
10.0000028519
10.0000019465
10.0000023942
10.0000020085
10.0000020409
10.0000018659
10.000001745
10.000001591
10.0000014263
10.0000012522
10.0000010764
10.0000009061
10.0000007524
10.0000006282
10.0000005494
10.0000005257
10.0000005627
10.0000006603
10.000000817
10.0000010276
10.0000012819
10.0000015678
10.0000018708
10.0000021793
10.0000024846
10.0000027799
10.0000030603
10.0000033226
10.0000035632
10.0000037788
10.0000039659
10.0000041219
10.0000042448
10.000004334
10.0000043897
10.0000044135
10.000004407
10.0000043732
10.0000043148
10.0000042357
10.0000041383
10.0000040271
10.0000039035
10.0000037725
10.0000036327
10.0000034862
10.0000033355
10.000003183
10.000003031
10.0000028816
10.0000027368
10.0000025989
10.0000024696
10.0000023507
10.000002244
10.000002151
10.000002073
10.0000020113
10.0000019671
10.0000019412
10.0000019345
10.0000019474
10.0000019804
10.0000020336
10.0000021071
10.0000022004
10.0000023133
10.000002445
10.0000025944
10.0000027607
10.0000029415
10.0000031374
10.0000033417
10.0000035609
10.0000037763
10.0000040145
10.0000042198
10.000004484
10.0000046411
10.0000049802
10.0000050015
10.0000000243
10.0000000828
10.0000001283
10.0000001694
10.0000002181
10.0000002755
10.0000003403
10.0000004118
10.0000004893
10.0000005728
10.0000006617
10.0000007556
10.0000008545
10.000000959
10.0000010668
10.0000011794
10.0000012914
10.0000014082
10.000001518
10.000001636
10.0000017355
10.0000018551
10.0000019329
10.0000020611
10.0000020985
10.0000022549
10.0000022182
10.0000024462
10.0000022726
10.0000026562
10.0000022344
10.0000029202
10.0000020671
10.0000032843
10.0000017318
10.0000037899
10.0000012088
10.0000044415
10.0000005349
10.0000051626
9.9999998416
10.0000057685
9.99999935435
10.0000060014
9.99999932647
10.0000056469
9.99999987081
10.0000047141
10.0000007928
10.0000035355
10.0000016185
10.0000025782
10.0000019454
10.00000202
10.0000018045
10.0000016418
10.0000014592
10.0000012688
10.0000010698
10.0000008855
10.0000007501
10.0000006752
10.0000006327
10.0000005861
10.0000005334
10.0000005205
10.0000006044
10.0000008184
10.0000011537
10.0000015722
10.0000020271
10.0000024776
10.0000028969
10.0000032722
10.0000036003
10.0000038818
10.0000041185
10.0000043117
10.0000044621
10.0000045709
10.0000046391
10.0000046688
10.0000046623
10.0000046231
10.0000045549
10.000004462
10.0000043488
10.000004219
10.000004077
10.0000039254
10.0000037683
10.0000036071
10.0000034457
10.0000032828
10.0000031197
10.0000029592
10.0000028035
10.0000026549
10.0000025154
10.0000023871
10.0000022718
10.0000021712
10.0000020868
10.0000020202
10.0000019724
10.0000019446
10.0000019377
10.0000019525
10.0000019893
10.0000020485
10.00000213
10.0000022337
10.000002359
10.0000025054
10.0000026716
10.0000028565
10.0000030588
10.0000032757
10.0000035075
10.0000037467
10.0000040011
10.0000042478
10.0000045203
10.0000047497
10.0000050495
10.0000052166
10.0000055983
10.0000056015
10.0000000208
10.0000000825
10.0000001292
10.000000175
10.0000002275
10.0000002875
10.0000003545
10.0000004278
10.0000005069
10.0000005921
10.0000006825
10.0000007782
10.0000008784
10.0000009845
10.0000010927
10.0000012064
10.0000013171
10.0000014349
10.0000015406
10.0000016607
10.0000017514
10.0000018772
10.0000019377
10.0000020831
10.000002086
10.0000022851
10.0000021774
10.0000025033
10.0000021816
10.0000027784
10.0000020483
10.00000318
10.0000016994
10.0000038091
10.000001031
10.000004783
9.99999994277
10.0000061828
9.99999841091
10.0000079574
9.99999658693
10.0000098277
9.99999488567
10.0000112532
9.99999393095
10.000011575
9.99999430663
10.0000103481
9.99999616342
10.0000077537
9.99999886009
10.0000048066
10.0000010617
10.0000027941
10.0000018383
10.0000019001
10.0000016737
10.0000014159
10.0000011253
10.0000009684
10.000000968
10.0000008105
9.99999999303
9.99999826959
9.99999595907
9.9999938117
9.9999925446
9.99999249697
9.99999355834
9.99999533608
9.99999737213
9.99999930469
10.000000932
10.0000021954
10.0000031262
10.0000037899
10.0000042541
10.0000045725
10.0000047848
10.0000049181
10.0000049911
10.0000050155
10.0000049985
10.0000049432
10.0000048521
10.0000047277
10.0000045746
10.0000043987
10.0000042078
10.0000040091
10.0000038099
10.0000036148
10.0000034286
10.0000032521
10.0000030876
10.0000029313
10.0000027841
10.000002647
10.000002521
10.0000024075
10.0000023081
10.0000022244
10.0000021581
10.0000021107
10.0000020839
10.0000020787
10.0000020963
10.0000021374
10.0000022023
10.0000022914
10.0000024043
10.0000025407
10.0000026997
10.0000028804
10.0000030812
10.0000033007
10.0000035372
10.0000037876
10.0000040519
10.0000043217
10.0000046058
10.0000048784
10.0000051775
10.0000054254
10.0000057498
10.0000059234
10.0000063303
10.0000063214
10.0000000259
10.0000000915
10.000000144
10.0000001911
10.0000002432
10.0000003031
10.0000003702
10.0000004442
10.0000005241
10.0000006104
10.0000007018
10.000000799
10.0000009004
10.0000010083
10.0000011172
10.0000012328
10.0000013429
10.0000014626
10.0000015653
10.0000016885
10.0000017723
10.0000019047
10.0000019514
10.0000021121
10.0000020874
10.0000023222
10.0000021574
10.0000025651
10.0000021197
10.0000029021
10.000001897
10.000003445
10.0000013534
10.0000043776
10.0000002757
10.0000059597
9.99999838916
10.0000084737
9.99999545124
10.0000120715
9.99999147078
10.0000165114
9.99998698645
10.000020928
9.99998316168
10.0000239193
9.99998146676
10.0000240649
9.99998304476
10.0000205758
9.99998810018
10.0000139347
9.99999507887
10.0000068754
10.0000001739
10.0000029919
10.0000017316
10.0000012625
10.0000012323
10.0000021477
10.0000019416
9.99999643187
9.99998213352
9.9999596467
9.99993444931
9.99991403372
9.99990389626
9.99990550088
9.999916654
9.99993325898
9.99995114234
9.99996726414
9.9999801045
9.99998941199
9.99999568355
9.99999967982
10.0000021193
10.0000035513
10.0000043456
10.0000047363
10.0000048737
10.0000048632
10.0000047842
10.0000046943
10.0000046275
10.0000045941
10.0000045854
10.0000045817
10.0000045606
10.0000045045
10.0000044039
10.0000042579
10.0000040727
10.0000038595
10.0000036307
10.0000033997
10.0000031744
10.0000029632
10.0000027733
10.0000026094
10.0000024745
10.0000023702
10.000002297
10.0000022549
10.0000022432
10.0000022614
10.0000023084
10.0000023836
10.0000024858
10.0000026142
10.0000027675
10.0000029447
10.000003144
10.0000033645
10.0000036039
10.0000038606
10.0000041323
10.000004416
10.0000047113
10.0000050095
10.0000053197
10.0000056144
10.0000059348
10.0000061967
10.0000065383
10.000006715
10.000007136
10.0000071153
10.0000000228
10.0000000917
10.0000001449
10.0000001967
10.0000002527
10.0000003151
10.000000384
10.0000004596
10.0000005408
10.0000006286
10.0000007211
10.0000008201
10.000000923
10.0000010329
10.0000011432
10.0000012608
10.0000013715
10.0000014932
10.0000015956
10.0000017204
10.0000018026
10.0000019366
10.0000019806
10.0000021431
10.000002115
10.0000023531
10.0000021827
10.0000026002
10.0000021383
10.0000029565
10.0000018888
10.0000035648
10.0000012492
10.0000046905
9.99999988155
10.000006781
9.99999724364
10.0000104806
9.99999262731
10.0000164912
9.99998546109
10.0000251017
9.9999759396
10.0000354443
9.99996571219
10.0000450753
9.99995777112
10.0000507841
9.99995500356
10.0000502768
9.99995898443
10.0000422098
9.99997100271
10.000025903
9.99998832583
10.0000103039
9.99999776303
10.0000015248
10.0000066135
10.0000078387
9.99997811917
9.99988783913
9.9997268281
9.99952012293
9.99932086992
9.99918309603
9.99913664165
9.9991806849
9.99929161358
9.99943648793
9.99958453815
9.9997143955
9.9998159971
9.99988848404
9.99993640684
9.99996619844
9.99998389605
9.9999941423
10.0000000505
10.0000034701
10.0000053747
10.0000062228
10.0000062414
10.0000055999
10.0000044902
10.00000313
10.0000017355
10.0000004839
9.99999949349
9.99999881743
9.99999845444
9.99999836473
9.9999984888
9.99999876175
9.99999912401
9.99999952662
9.99999993402
10.0000003204
10.000000672
10.0000009843
10.0000012585
10.0000014991
10.0000017127
10.0000019065
10.0000020876
10.0000022628
10.0000024379
10.0000026178
10.0000028064
10.0000030067
10.0000032208
10.00000345
10.0000036949
10.0000039555
10.000004231
10.0000045201
10.0000048216
10.0000051319
10.000005452
10.0000057712
10.0000061015
10.0000064106
10.0000067465
10.0000070145
10.0000073672
10.0000075386
10.0000079664
10.0000079252
10.0000000279
10.0000001007
10.000000159
10.0000002115
10.0000002677
10.00000033
10.0000003991
10.0000004752
10.0000005572
10.0000006457
10.0000007392
10.0000008397
10.0000009442
10.0000010559
10.000001168
10.0000012872
10.0000014
10.0000015223
10.0000016274
10.0000017507
10.0000018379
10.0000019654
10.0000020206
10.0000021663
10.0000021647
10.0000023632
10.0000022532
10.0000025841
10.0000022508
10.0000028916
10.0000020765
10.0000034218
10.0000015459
10.0000044605
10.0000002649
10.0000065784
9.99999745989
10.0000108084
9.99999181617
10.0000187463
9.99998155656
10.0000321704
9.99996524599
10.0000516888
9.99994365913
10.0000745923
9.9999216395
10.0000941539
9.99990663562
10.0001039165
9.99990206127
10.0001039255
9.99990700193
10.0000891752
9.99993657074
10.0000459102
9.99997003607
10.0000326286
10.0000323866
9.99990649717
9.99945487951
9.998558145
9.99726661166
9.99583527743
9.99462363082
9.99392057151
9.9938342018
9.99429804909
9.99513994309
9.99615519354
9.99716211352
9.99803668998
9.99872100683
9.9992113056
9.99953671999
9.99973869108
9.99985688122
9.99992266338
9.99995808247
9.99997739319
9.99998913375
9.99999789585
10.0000056817
10.0000129518
10.0000194208
10.0000246119
10.0000281739
10.0000300036
10.0000302351
10.000029165
10.0000271617
10.0000245913
10.0000217691
10.000018938
10.000016265
10.0000138506
10.0000117428
10.0000099525
10.0000084642
10.000007251
10.0000062806
10.0000055195
10.000004936
10.0000045019
10.0000041931
10.0000039893
10.0000038742
10.000003834
10.0000038582
10.0000039376
10.0000040653
10.0000042343
10.0000044404
10.0000046771
10.0000049423
10.0000052281
10.0000055355
10.0000058521
10.000006186
10.0000065131
10.0000068595
10.0000071713
10.0000075218
10.0000077803
10.0000081439
10.0000082866
10.0000087191
10.000008622
10.0000000251
10.0000001013
10.0000001605
10.0000002166
10.0000002765
10.0000003417
10.0000004125
10.0000004899
10.0000005731
10.0000006627
10.0000007578
10.0000008599
10.0000009665
10.0000010798
10.0000011943
10.0000013147
10.0000014308
10.000001553
10.0000016631
10.0000017829
10.0000018793
10.0000019962
10.0000020707
10.0000021901
10.0000022308
10.0000023691
10.0000023529
10.0000025487
10.0000024219
10.0000027662
10.000002395
10.0000031086
10.0000021538
10.000003784
10.000001391
10.0000052863
9.99999936171
10.0000087338
9.99999445192
10.0000164018
9.99998362495
10.0000321359
9.99996239591
10.0000605823
9.99992685874
10.00010348
9.99987917333
10.0001529583
9.99983378616
10.0001890959
9.99981074667
10.0002019264
9.99979758429
10.0002243162
9.99978261159
10.0001715844
9.99990695904
10.0002324165
9.99965244704
9.99790345964
9.99396063769
9.98773879803
9.98002209076
9.97243285315
9.96675631167
9.96412332917
9.96469817248
9.96790434897
9.97282090961
9.97846329286
9.9839783585
9.98877918563
9.99258053971
9.99535244804
9.99723116496
9.99842496498
9.99914181877
9.99955026372
9.99976957576
9.99987714916
9.99992116976
9.99993149144
9.99992667292
9.99991791918
9.99991133963
9.99990949751
9.99991266948
9.99991987746
9.99992966403
9.9999405913
9.99995150285
9.99996160804
9.99997046153
9.99997789079
9.99998391226
9.99998865544
9.99999230416
9.99999505698
9.99999710222
9.99999860412
9.99999970235
10.0000005088
10.0000011108
10.0000015744
10.0000019491
10.0000022699
10.0000025633
10.0000028453
10.0000031299
10.0000034219
10.0000037295
10.0000040494
10.0000043897
10.0000047386
10.0000051092
10.0000054783
10.0000058703
10.0000062431
10.0000066442
10.0000069972
10.0000073947
10.0000076945
10.0000080808
10.0000082775
10.0000086619
10.0000086763
10.0000091152
10.0000088028
10.0000000301
10.0000001099
10.0000001737
10.00000023
10.0000002896
10.0000003552
10.0000004268
10.000000505
10.0000005892
10.0000006799
10.0000007765
10.0000008799
10.0000009883
10.0000011028
10.0000012198
10.000001341
10.0000014604
10.0000015823
10.0000016974
10.0000018143
10.0000019191
10.0000020276
10.0000021181
10.0000022175
10.0000022915
10.0000023847
10.0000024404
10.000002535
10.0000025675
10.0000026814
10.0000026701
10.0000028533
10.0000027184
10.0000031319
10.0000025886
10.0000037589
10.0000018643
10.0000054632
9.99999933957
10.0000102251
9.99999192557
10.0000226978
9.99997298671
10.0000517851
9.99993147485
10.0001097881
9.99985583683
10.0002038567
9.99974899354
10.0003126621
9.99965969547
10.0003591876
9.99965931611
10.0003758708
9.99950397209
10.0005980233
9.9999231374
9.99973772489
9.99313376633
9.97993669274
9.95629660578