/*--------------------------------*- C++ -*----------------------------------*\
  =========                 |
  \\      /  F ield         | OpenFOAM: The Open Source CFD Toolbox
   \\    /   O peration     | Website:  https://openfoam.org
    \\  /    A nd           | Version:  7
     \\/     M anipulation  |
\*---------------------------------------------------------------------------*/
FoamFile
{
    version     2.0;
    format      ascii;
    class       surfaceScalarField;
    location    "1080";
    object      phi;
}
// * * * * * * * * * * * * * * * * * * * * * * * * * * * * * * * * * * * * * //

dimensions      [0 3 -1 0 0 0 0];

internalField   nonuniform List<scalar> 
16192
(
6.9289837949e-10
2.4460162051e-10
4.93513648829e-10
1.99384729794e-10
3.64768762733e-10
1.28744884837e-10
2.82198006373e-10
8.25707547447e-11
2.27602816975e-10
5.4595187402e-11
1.90035958351e-10
3.75668564302e-11
1.63151234087e-10
2.68847219822e-11
1.43233014738e-10
1.99182170492e-11
1.28044771421e-10
1.5188241009e-11
1.16192502935e-10
1.18522662013e-11
1.06774799094e-10
9.41770156907e-12
9.91876288456e-11
7.58716801768e-12
9.30127366476e-11
6.17488999249e-12
8.79519393021e-11
5.06079519666e-12
8.37872197368e-11
4.16471745603e-12
8.03557222019e-11
3.43149550232e-12
7.75336082966e-11
2.82211193065e-12
7.52253384308e-11
2.30826799284e-12
7.33563701737e-11
1.86896646549e-12
7.18680678137e-11
1.48830070081e-12
7.07140786999e-11
1.15398756658e-12
6.98577062629e-11
8.56371061213e-13
6.92699742672e-11
5.87730772197e-13
6.89281808794e-11
3.41792386702e-13
6.88148052757e-11
1.13374809066e-13
6.89166730412e-11
-1.01868270937e-13
6.92243124111e-11
-3.07639597326e-13
6.97314537147e-11
-5.07141155517e-13
7.04346375646e-11
-7.03183330783e-13
7.13329053297e-11
-8.98266761246e-13
7.2427549186e-11
-1.09464236433e-12
7.37219045979e-11
-1.29435330031e-12
7.52211684794e-11
-1.49926113892e-12
7.69322288554e-11
-1.71105685293e-12
7.88634897999e-11
-1.93125662318e-12
8.10246763494e-11
-2.16118126366e-12
8.34266004742e-11
-2.40191785388e-12
8.60808693063e-11
-2.65426139705e-12
8.89995126719e-11
-2.9186347503e-12
9.21945078509e-11
-3.19498519887e-12
9.56771770745e-11
-3.48265787724e-12
9.94574381935e-11
-3.7802482274e-12
1.03542892583e-10
-4.08543998073e-12
1.07937748503e-10
-4.3948398329e-12
1.12641593038e-10
-4.70382684362e-12
1.17648053019e-10
-5.00644055907e-12
1.22943411581e-10
-5.2953375461e-12
1.28505280932e-10
-5.56184666004e-12
1.34301453956e-10
-5.79614887577e-12
1.40289073149e-10
-5.98759357359e-12
1.46414243274e-10
-6.12514335336e-12
1.52612186372e-10
-6.19791524967e-12
1.58807983297e-10
-6.19576845637e-12
1.6491789432e-10
-6.10988213545e-12
1.70851201473e-10
-5.93327847586e-12
1.76512496843e-10
-5.66126725515e-12
1.81804334539e-10
-5.29181094844e-12
1.86630179711e-10
-4.82582026407e-12
1.90897595733e-10
-4.2673938559e-12
1.94521628582e-10
-3.62401389005e-12
1.97428338429e-10
-2.9066949304e-12
1.99558368263e-10
-2.13001924918e-12
2.00870251816e-10
-1.31187791294e-12
2.01342916237e-10
-4.726637332e-13
2.00976699316e-10
3.66212323029e-13
1.99792427277e-10
1.1842624281e-12
1.9782866049e-10
1.9637520907e-12
1.9513778747e-10
2.69085375935e-12
1.91781935977e-10
3.35582783508e-12
1.87829526654e-10
3.95238198976e-12
1.8335283673e-10
4.47665925991e-12
1.78426496315e-10
4.92630724698e-12
1.73126573641e-10
5.29988740873e-12
1.6752986449e-10
5.59667260452e-12
1.61713081681e-10
5.81674535898e-12
1.55751784898e-10
5.96125917201e-12
1.49719024198e-10
6.03272323626e-12
1.43683790072e-10
6.03519744111e-12
1.37709431471e-10
5.9743229034e-12
1.31852235724e-10
5.85716152521e-12
1.26160339648e-10
5.6918634137e-12
1.20673090603e-10
5.48721827717e-12
1.15420897414e-10
5.25216427658e-12
1.1042554338e-10
4.99532717908e-12
1.05700874157e-10
4.72464428945e-12
1.01253747945e-10
4.44710330028e-12
9.70851262278e-11
4.16860062897e-12
9.31912009782e-11
3.8939060215e-12
8.95644743726e-11
3.62670900639e-12
8.61947378404e-11
3.36972056353e-12
8.30699183867e-11
3.12480487523e-12
8.01767834548e-11
2.89312173232e-12
7.75015061466e-11
2.67526525338e-12
7.50301046656e-11
2.4713905615e-12
7.27487710112e-11
2.2813236511e-12
7.06441085558e-11
2.10465336894e-12
6.87032944225e-11
1.94080576388e-12
6.69141839867e-11
1.78910279787e-12
6.52653695968e-11
1.64880730372e-12
6.37462062985e-11
1.51915679296e-12
6.23468122142e-11
1.39938799889e-12
6.10580521986e-11
1.28875439264e-12
5.98715088505e-11
1.1865380434e-12
5.87794464235e-11
1.09205749492e-12
5.77747692303e-11
1.00467250315e-12
5.68509780085e-11
9.23786838013e-13
5.60021241955e-11
8.48849616146e-13
5.52227641875e-11
7.79356070071e-13
5.45079123799e-11
7.14848018133e-13
5.38529939969e-11
6.54914820291e-13
5.32537954952e-11
5.99195062493e-13
5.27064124319e-11
5.47379830878e-13
5.22071912819e-11
4.99218027423e-13
5.17526633944e-11
4.54524962266e-13
5.13394652755e-11
4.13195299776e-13
5.09642400607e-11
3.7522259421e-13
5.06235094425e-11
3.40728111365e-13
5.03135033285e-11
3.10003819535e-13
5.00299244885e-11
2.8357668209e-13
4.97676158756e-11
2.62306699239e-13
4.95200752696e-11
2.47538871427e-13
4.92787301333e-11
2.41343695351e-13
4.90318274085e-11
2.46901509983e-13
4.87627190119e-11
2.69107497011e-13
4.844728045e-11
3.1543785421e-13
4.8050629644e-11
3.96650323631e-13
4.75260984121e-11
5.24531049017e-13
6.73051466759e-13
9.53383454411e-10
2.28718165739e-10
8.59600633525e-10
2.93167548035e-10
7.45065692413e-10
2.4327982259e-10
6.41931224977e-10
1.85705218053e-10
5.56824171003e-10
1.3970223673e-10
4.88538651693e-10
1.05852370863e-10
4.34048161451e-10
8.13752072593e-11
3.90395729646e-10
6.35706438739e-11
3.55164292912e-10
5.04196727738e-11
3.2649463106e-10
4.05219231242e-11
3.02985489274e-10
3.29268384715e-11
2.83583724461e-10
2.69889280192e-11
2.67493496533e-10
2.22651131842e-11
2.54107868322e-10
1.84464187753e-11
2.42959106569e-10
1.53134746862e-11
2.33683000448e-10
1.2707597244e-11
2.25993247731e-10
1.05118604196e-11
2.19662957734e-10
8.63855395505e-12
2.14511170512e-10
7.02074985554e-12
2.10392927161e-10
5.60654047419e-12
2.07191873834e-10
4.35503758541e-12
2.04814692572e-10
3.23354934734e-12
2.03186863342e-10
2.2155573852e-12
2.02249407808e-10
1.27924574011e-12
2.01956364292e-10
4.06416619511e-13
2.02272813273e-10
-4.18318383544e-13
2.0317331846e-10
-1.20814528982e-12
2.04640684498e-10
-1.97450694813e-12
2.06664956358e-10
-2.7274541242e-12
2.09242599899e-10
-3.47590826517e-12
2.12375812911e-10
-4.22785227499e-12
2.16071924549e-10
-4.99046059721e-12
2.20342843696e-10
-5.77017459183e-12
2.25204519831e-10
-6.57272573805e-12
2.30676378193e-10
-7.40310605005e-12
2.36780690956e-10
-8.26548318349e-12
2.4354184192e-10
-9.1630559262e-12
2.50985441198e-10
-1.00978455031e-11
2.59137242555e-10
-1.10704185208e-11
2.68021817854e-10
-1.207954027e-11
2.77660944772e-10
-1.31217618169e-11
2.88071675433e-10
-1.41909529625e-11
2.99264069128e-10
-1.52778047461e-11
3.11238602585e-10
-1.63693412135e-11
3.23983308796e-10
-1.74484978571e-11
3.37470748987e-10
-1.84938423749e-11
3.51654978361e-10
-1.94795255074e-11
3.66468727104e-10
-2.03755510178e-11
3.81821060833e-10
-2.11484355411e-11
3.97595805937e-10
-2.17622891702e-11
4.13651000886e-10
-2.21802868551e-11
4.29819572571e-10
-2.23664340116e-11
4.45911333657e-10
-2.22874759279e-11
4.61716289223e-10
-2.19147841515e-11
4.77009143619e-10
-2.12260804896e-11
4.91554846471e-10
-2.02069199431e-11
5.05114994847e-10
-1.8851912738e-11
5.17454914715e-10
-1.71656983271e-11
5.28351244103e-10
-1.5163687611e-11
5.37599841999e-10
-1.28725833917e-11
5.45023813843e-10
-1.03306467275e-11
5.5048132557e-10
-7.5875199245e-12
5.53872576388e-10
-4.70312728133e-12
5.55144907506e-10
-1.74500311157e-12
5.54294846965e-10
1.21625482171e-12
5.51366316802e-10
4.11276517725e-12
5.46445228791e-10
6.88480373227e-12
5.39651719252e-10
9.48431884489e-12
5.31131788211e-10
1.18757071634e-11
5.21049862059e-10
1.40342503708e-11
5.09583022274e-10
1.5943436268e-11
4.96916858388e-10
1.75924046533e-11
4.83242421469e-10
1.89742551999e-11
4.68753639301e-10
2.00853842132e-11
4.53644668554e-10
2.09256450359e-11
4.38106889249e-10
2.14989679441e-11
4.22325486456e-10
2.18140567655e-11
4.06475778945e-10
2.1884837784e-11
3.90719593374e-10
2.17304438979e-11
3.75202043883e-10
2.13746495925e-11
3.60049042421e-10
2.0844806845e-11
3.45365768597e-10
2.01704377661e-11
3.31236185937e-10
1.93816963085e-11
3.17723556229e-10
1.85079100615e-11
3.04871790533e-10
1.75763668081e-11
2.92707414675e-10
1.66114395804e-11
2.81241905803e-10
1.56340732709e-11
2.70474178727e-10
1.4661600085e-11
2.60393039174e-10
1.3707818466e-11
2.50979474576e-10
1.27832578229e-11
2.42208699242e-10
1.18955553183e-11
2.34051915286e-10
1.10498830813e-11
2.26477779603e-10
1.0249380322e-11
2.194535916e-10
9.49555979679e-12
2.12946226806e-10
8.78867126274e-12
2.06922850517e-10
8.12801394197e-12
2.01351444779e-10
7.51219702587e-12
1.96201183174e-10
6.93935108055e-12
1.91442682315e-10
6.40729579955e-12
1.87048157493e-10
5.91367015488e-12
1.82991503359e-10
5.456031415e-12
1.79248318976e-10
5.03192876733e-12
1.75795890619e-10
4.63895696877e-12
1.72613144854e-10
4.27479439449e-12
1.69680579464e-10
3.93722948174e-12
1.66980179748e-10
3.62417860598e-12
1.64495323552e-10
3.33369823338e-12
1.6221067898e-10
3.06399345373e-12
1.6011209508e-10
2.81342504228e-12
1.58186486664e-10
2.58051670393e-12
1.56421711023e-10
2.36396445023e-12
1.54806435087e-10
2.16264983335e-12
1.53329988086e-10
1.97565935876e-12
1.51982195169e-10
1.8023125252e-12
1.50753183412e-10
1.64220197423e-12
1.49633151345e-10
1.49524991273e-12
1.48612088299e-10
1.36178671089e-12
1.47679428936e-10
1.24265911642e-12
1.46823623781e-10
1.13937813689e-12
1.46031608752e-10
1.05431848545e-12
1.45288162952e-10
9.90981883285e-13
1.44575176829e-10
9.54327577075e-13
1.43870940636e-10
9.51135994416e-13
1.43149806047e-10
9.90240993229e-13
1.42383208924e-10
1.08203447842e-12
1.41544610064e-10
1.23524913478e-12
1.40625942775e-10
1.44319845106e-12
1.63384344312e-12
9.76217478546e-10
1.90000685935e-10
9.62982999573e-10
3.06402022452e-10
9.0611776852e-10
3.0014504864e-10
8.33788840819e-10
2.58034140512e-10
7.60990890536e-10
2.12500181452e-10
6.94133740699e-10
1.72709514987e-10
6.35286212395e-10
1.40222729781e-10
5.8455090348e-10
1.14305947003e-10
5.41243235649e-10
9.37273348187e-11
5.04440710739e-10
7.73244422871e-11
4.73221445542e-10
6.4146097947e-11
4.46755869028e-10
5.34544988782e-11
4.24332060244e-10
4.46889163639e-11
4.05353089449e-10
3.7425384062e-11
3.89324098658e-10
3.1342460048e-11
3.75836975928e-10
2.61947146797e-11
3.64555842159e-10
2.17929890084e-11
3.55204458241e-10
1.79899328736e-11
3.47555741832e-10
1.46694614238e-11
3.41423220986e-10
1.17390567156e-11
3.36654136804e-10
9.12411738045e-12
3.33123900662e-10
6.76378140865e-12
3.3073164231e-10
4.60781195127e-12
3.29396629152e-10
2.61425551313e-12
3.29055376729e-10
7.47666057352e-13
3.29659307205e-10
-1.02225132073e-12
3.31172837137e-10
-2.72167714762e-12
3.33571804276e-10
-4.3734753278e-12
3.36842157118e-10
-5.99780749393e-12
3.40978841791e-10
-7.61259257679e-12
3.45984828867e-10
-9.2338380559e-12
3.51870229793e-10
-1.08758590884e-11
3.58651453423e-10
-1.2551394585e-11
3.66350355631e-10
-1.42716228717e-11
3.74993331826e-10
-1.60460756579e-11
3.84610302019e-10
-1.78824450155e-11
3.95233533028e-10
-1.97862767207e-11
4.0689624222e-10
-2.17605423463e-11
4.19630923695e-10
-2.38050854416e-11
4.33467342499e-10
-2.59159420335e-11
4.48430146974e-10
-2.80845467214e-11
4.64536067153e-10
-3.02968507781e-11
4.81790689493e-10
-3.25324019404e-11
5.00184839608e-10
-3.47634631841e-11
5.19690653894e-10
-3.69542810931e-11
5.40257490089e-10
-3.90606444682e-11
5.61807897432e-10
-4.1029895909e-11
5.84233943622e-10
-4.28015573821e-11
6.07394248083e-10
-4.43086976562e-11
6.31112096899e-10
-4.5480093222e-11
6.55174981389e-10
-4.62431247329e-11
6.79335821041e-10
-4.65272255077e-11
7.03315994947e-10
-4.62676009761e-11
7.26810162521e-10
-4.54089027351e-11
7.49492722163e-10
-4.3908592166e-11
7.71025684318e-10
-4.17398360029e-11
7.91067700659e-10
-3.88938862769e-11
8.09283989768e-10
-3.53819489199e-11
8.25356882315e-10
-3.12365474097e-11
8.3899670008e-10
-2.651237505e-11
8.49952655931e-10
-2.12865843482e-11
8.58023360302e-10
-1.56582144171e-11
8.63066174011e-10
-9.74594022384e-12
8.65004121873e-10
-3.68295926367e-12
8.63828784125e-10
2.39157499711e-12
8.59598097692e-10
8.34342532845e-12
8.52429324733e-10
1.40535419646e-11
8.42488846027e-10
1.94247553935e-11
8.29981105615e-10
2.43833986452e-11
8.1513866641e-10
2.88766351769e-11
7.98214292313e-10
3.28677513581e-11
7.79474975316e-10
3.63316594049e-11
7.59197257571e-10
3.92519083095e-11
7.37663092041e-10
4.16194839739e-11
7.15155636745e-10
4.34330341525e-11
6.91954653244e-10
4.4699885935e-11
6.68331462681e-10
4.54371830506e-11
6.44543670538e-10
4.5672567746e-11
6.2083003982e-10
4.54440148895e-11
5.97405967656e-10
4.47986650917e-11
5.74459975989e-10
4.37907450366e-11
5.52151504517e-10
4.24788593063e-11
5.30610113839e-10
4.09230405206e-11
5.09936034844e-10
3.91819462076e-11
4.9020185648e-10
3.73105057117e-11
4.7145506576e-10
3.5358194243e-11
4.53721125245e-10
3.33679808162e-11
4.37006798848e-10
3.1375896536e-11
4.21303483163e-10
2.9411106875e-11
4.06590367493e-10
2.74963487928e-11
3.92837303646e-10
2.56485966832e-11
3.8000732345e-10
2.38798429196e-11
3.68058780051e-10
2.21979051502e-11
3.56947122191e-10
2.06072007959e-11
3.46626326314e-10
1.9109451683e-11
3.37050025257e-10
1.77043008961e-11
3.28172373352e-10
1.63898359112e-11
3.19948691059e-10
1.51630214164e-11
3.12335926511e-10
1.40200492167e-11
3.05292970447e-10
1.295661592e-11
2.98780853272e-10
1.19681389178e-11
2.92762851279e-10
1.10499217453e-11
2.87204521574e-10
1.01972781355e-11
2.82073684134e-10
9.40562382438e-12
2.77340362862e-10
8.67054311144e-12
2.7297669732e-10
7.98783693977e-12
2.68956831199e-10
7.35355743863e-12
2.65256784163e-10
6.76403394683e-12
2.61854308811e-10
6.21589409258e-12
2.58728735584e-10
5.70608396087e-12
2.55860803942e-10
5.23189033726e-12
2.53232479479e-10
4.79096885253e-12
2.50826752397e-10
4.38138120101e-12
2.48627414192e-10
4.00164580064e-12
2.46618805511e-10
3.65080593927e-12
2.44785530199e-10
3.32852083821e-12
2.43112128134e-10
3.03518463547e-12
2.41582704657e-10
2.77207883112e-12
2.40180518544e-10
2.54156079936e-12
2.38887548858e-10
2.34728518143e-12
2.37684091143e-10
2.19443701182e-12
2.36548502289e-10
2.08991438723e-12
2.35457339523e-10
2.04229716389e-12
2.34386385004e-10
2.06119445479e-12
2.33313463873e-10
2.15495516818e-12
2.32224609453e-10
2.32410368026e-12
2.3112402898e-10
2.54377937554e-12
2.72159372691e-12
9.71768487582e-10
1.55732196534e-10
9.86697363461e-10
2.91473140776e-10
9.68228358555e-10
3.18614047728e-10
9.27981149724e-10
2.98281343029e-10
8.77810977661e-10
2.62670346787e-10
8.25240130512e-10
2.25280355223e-10
7.7441846587e-10
1.91044387442e-10
7.27379051119e-10
1.61345354756e-10
6.84935662279e-10
1.36170716658e-10
6.47239591786e-10
1.15020505796e-10
6.14105449891e-10
9.72802328784e-11
5.85194902289e-10
8.23650395502e-11
5.60116887941e-10
6.97669238232e-11
5.3848003346e-10
5.90622317132e-11
5.19918278432e-10
4.99042083113e-11
5.04101817341e-10
4.20111690939e-11
4.90740227958e-10
3.51545718105e-11
4.79581633288e-10
2.91485210855e-11
4.70410017988e-10
2.38410703979e-11
4.63041844065e-10
1.91072244785e-11
4.57322562402e-10
1.48433930622e-11
4.53123313059e-10
1.09630249907e-11
4.50337940444e-10
7.393179048e-12
4.48880361018e-10
4.07182971673e-12
4.48682274649e-10
9.45747530741e-13
4.49691189158e-10
-2.03117032881e-12
4.51868712823e-10
-4.89920486692e-12
4.55189077627e-10
-7.6938436561e-12
4.59637846521e-10
-1.04465793141e-11
4.65210758728e-10
-1.31855070044e-11
4.71912668889e-10
-1.59357496428e-11
4.79756535858e-10
-1.87197265553e-11
4.88762414854e-10
-2.15572730401e-11
4.98956405175e-10
-2.44656114527e-11
5.1036950181e-10
-2.74591692227e-11
5.23036296613e-10
-3.05492352334e-11
5.36993470295e-10
-3.37434441548e-11
5.52278014873e-10
-3.70450788113e-11
5.68925124687e-10
-4.04521851231e-11
5.86965698441e-10
-4.39565034283e-11
6.06423402779e-10
-4.75422363274e-11
6.27311266862e-10
-5.1184697569e-11
6.49627805464e-10
-5.48489205742e-11
6.7335271284e-10
-5.84883477695e-11
6.9844222777e-10
-6.20437703572e-11
7.24824346129e-10
-6.54427342117e-11
7.52394140957e-10
-6.8599659212e-11
7.81009536244e-10
-7.14169182667e-11
8.10487946541e-10
-7.37870708464e-11
8.40604224312e-10
-7.55963313598e-11
8.71090323358e-10
-7.67291819746e-11
9.01636986285e-10
-7.70738448476e-11
9.3189760064e-10
-7.6528170564e-11
9.6149418563e-10
-7.50054424415e-11
9.90025312002e-10
-7.24396736499e-11
1.01707566829e-09
-6.87901487718e-11
1.04222695723e-09
-6.40451342693e-11
1.06506980314e-09
-5.82247576427e-11
1.08521632635e-09
-5.13830384956e-11
1.10231302238e-09
-4.3609045171e-11
1.11605360298e-09
-3.5027146365e-11
1.12619142763e-09
-2.57960285874e-11
1.13255078697e-09
-1.6105297802e-11
1.13503552643e-09
-6.16770592055e-12
1.13363291519e-09
3.79417006906e-12
1.12841120488e-09
1.3565110839e-11
1.11951110473e-09
2.29536091969e-11
1.10713333927e-09
3.18024806589e-11
1.09152532808e-09
3.99913633076e-11
1.07296941742e-09
4.7432494085e-11
1.0517736442e-09
5.40634686995e-11
1.02826474954e-09
5.98404952209e-11
1.00278256726e-09
6.47340297847e-11
9.75674889436e-10
6.87271000499e-11
9.47292152418e-10
7.18157093112e-11
9.17981612159e-10
7.4010365063e-11
8.88081000191e-10
7.53377352797e-11
8.57911934829e-10
7.58415754205e-11
8.27773554116e-10
7.55823404233e-11
7.97936913477e-10
7.46352534904e-11
7.68640635737e-10
7.30869736992e-11
7.40088145843e-10
7.10313034869e-11
7.12446608614e-10
6.85645354152e-11
6.85847480203e-10
6.57810356785e-11
6.60388420438e-10
6.27695297981e-11
6.36136222988e-10
5.96103591721e-11
6.1313039497e-10
5.63737792507e-11
5.91387047982e-10
5.31192167111e-11
5.70902820664e-10
4.98953098952e-11
5.51658626181e-10
4.67405213041e-11
5.33623086257e-10
4.36841167054e-11
5.1675557486e-10
4.07473363039e-11
5.01008840039e-10
3.79446236106e-11
4.86331207536e-10
3.52848184317e-11
4.72668390491e-10
3.277225515e-11
4.59964943781e-10
3.04077351873e-11
4.4816540618e-10
2.81893620811e-11
4.37215175996e-10
2.61132410604e-11
4.27061162668e-10
2.41740527545e-11
4.17652254368e-10
2.23655151104e-11
4.08939635776e-10
2.06807489698e-11
4.0087698656e-10
1.91125629446e-11
3.93420585098e-10
1.76536720168e-11
3.86529338715e-10
1.62968630372e-11
3.80164756527e-10
1.50351184681e-11
3.74290878621e-10
1.38617083461e-11
3.68874171015e-10
1.2770258819e-11
3.63883394402e-10
1.17548046126e-11
3.59289451152e-10
1.08098316291e-11
3.55065214285e-10
9.93031536184e-12
3.51185339228e-10
9.1117601408e-12
3.47626058922e-10
8.35024413804e-12
3.44364960545e-10
7.64247476736e-12
3.41380742514e-10
6.98585925816e-12
3.38652949195e-10
6.37859490789e-12
3.36161682698e-10
5.81978324604e-12
3.33887292649e-10
5.30957085483e-12
3.31810051405e-10
4.84931655857e-12
3.29909831556e-10
4.44177746244e-12
3.281658223e-10
4.09129165753e-12
3.2655635221e-10
3.80390476755e-12
3.25058939557e-10
3.58732523803e-12
3.2365077156e-10
3.45046391232e-12
3.22309923577e-10
3.40204176239e-12
3.21017713774e-10
3.44716481835e-12
3.19762278836e-10
3.57953890803e-12
3.18541154513e-10
3.76490421966e-12
3.91201283502e-12
9.63973600023e-10
1.29258593282e-10
9.87806194085e-10
2.67640539329e-10
9.90019417126e-10
3.16400817215e-10
9.72695440406e-10
3.15605312231e-10
9.42774993408e-10
2.92590786007e-10
9.06298336951e-10
2.61757003764e-10
8.67454483616e-10
2.29888232804e-10
8.28885728167e-10
1.99914102216e-10
7.92144528789e-10
1.72911908042e-10
7.58067279018e-10
1.49097747583e-10
7.27038974237e-10
1.28308529686e-10
6.99170015847e-10
1.10233989991e-10
6.74410703848e-10
9.45262278988e-11
6.52623825118e-10
8.08491025633e-11
6.33629826366e-10
6.8898199231e-11
6.17234352497e-10
5.84066351997e-11
6.03244581582e-10
4.9144335035e-11
5.91478520795e-10
4.09145742805e-11
5.8176993235e-10
3.35496513535e-11
5.7397058766e-10
2.69065618125e-11
5.67950922539e-10
2.08630509702e-11
5.63599766652e-10
1.53141738455e-11
5.60823564981e-10
1.01693738827e-11
5.59545347157e-10
5.35004094924e-12
5.59703596625e-10
7.87491743052e-13
5.61251106328e-10
-3.57868601662e-12
5.64153859848e-10
-7.8019639967e-12
5.68389967812e-10
-1.19299567728e-11
5.73948651346e-10
-1.6005267484e-11
5.80829259384e-10
-2.00661190576e-11
5.89040298352e-10
-2.41467919227e-11
5.98598445561e-10
-2.82778762451e-11
6.09527510805e-10
-3.24863398268e-11
6.21857305352e-10
-3.67954064472e-11
6.35622371355e-10
-4.1224234449e-11
6.50860519982e-10
-4.57873816735e-11
6.67611121217e-10
-5.04940416419e-11
6.85913085617e-10
-5.5347037697e-11
7.05802476622e-10
-6.03415686845e-11
7.27309695813e-10
-6.54637130299e-11
7.50456191922e-10
-7.0688720542e-11
7.75250663283e-10
-7.59791545234e-11
8.01684752639e-10
-8.12829928815e-11
8.29728279516e-10
-8.65318547815e-11
8.59324117501e-10
-9.16395855903e-11
8.90382905982e-10
-9.65014969461e-11
9.22777879949e-10
-1.00994604457e-10
9.56340201206e-10
-1.0497920782e-10
9.9085525588e-10
-1.08302090981e-10
1.02606042482e-09
-1.10801463064e-10
1.06164480221e-09
-1.12313519751e-10
1.09725122161e-09
-1.12680222585e-10
1.13248075173e-09
-1.1175765756e-10
1.16689959739e-09
-1.0942424412e-10
1.20004814715e-09
-1.05588179459e-10
1.23145181187e-09
-1.00193770531e-10
1.26063328839e-09
-9.32265700396e-11
1.28712589694e-09
-8.47173288789e-11
1.31048760528e-09
-7.47447143609e-11
1.33031531842e-09
-6.34367318957e-11
1.34625910362e-09
-5.09709124408e-11
1.35803615445e-09
-3.7573068442e-11
1.36544393958e-09
-2.35130808306e-11
1.3683707973e-09
-9.09457064195e-12
1.36680109286e-09
5.36385834623e-12
1.36081256578e-09
1.95536130199e-11
1.3505659932e-09
3.3200148729e-11
1.33629011197e-09
4.6078321648e-11
1.3182659056e-09
5.80155232434e-11
1.29681331338e-09
6.88850349016e-11
1.27228129551e-09
7.859543132e-11
1.24504055709e-09
8.7081175718e-11
1.21547767398e-09
9.42968532922e-11
1.1839895234e-09
1.00215190316e-10
1.15097730355e-09
1.04827868918e-10
1.11683982138e-09
1.08147787858e-10
1.08196609267e-09
1.10211406111e-10
1.0467276143e-09
1.11079998037e-10
1.0114708833e-09
1.10839018217e-10
9.76510815896e-10
1.09595270649e-10
9.4212564395e-10
1.0747209857e-10
9.08553670298e-10
1.04603233409e-10
8.75992004184e-10
1.01126161154e-10
8.44597151035e-10
9.71758517991e-11
8.14487146097e-10
9.28795009179e-11
7.85744826303e-10
8.83526482338e-11
7.58421818036e-10
8.36967596547e-11
7.32542861719e-10
7.89981478508e-11
7.08110166569e-10
7.43279823026e-11
6.85107572487e-10
6.97430948772e-11
6.63504372435e-10
6.52872982345e-11
6.43258714121e-10
6.09929778911e-11
6.24320548313e-10
5.68827742603e-11
6.06634126945e-10
5.29712260455e-11
5.90140076115e-10
4.92662934348e-11
5.74777083173e-10
4.57707166629e-11
5.6048324257e-10
4.24831921331e-11
5.47197107435e-10
3.9399366461e-11
5.34858491376e-10
3.65126597657e-11
5.23409062308e-10
3.38149357479e-11
5.12792764857e-10
3.12970385045e-11
5.02956103855e-10
2.89492164988e-11
4.93848315899e-10
2.6761452913e-11
4.8542145221e-10
2.47237200305e-11
4.77630391164e-10
2.28261731185e-11
4.70432795987e-10
2.10592974176e-11
4.63789029127e-10
1.94140198157e-11
4.57662032806e-10
1.78817953136e-11
4.52017182149e-10
1.64546768723e-11
4.46822116003e-10
1.51253763126e-11
4.42046548195e-10
1.38873229434e-11
4.37662061411e-10
1.27347261258e-11
4.33641884277e-10
1.16626472944e-11
4.29960652573e-10
1.06670865725e-11
4.26594155161e-10
9.74508813741e-12
4.23519067307e-10
8.89486716249e-12
4.20712676357e-10
8.11595811187e-12
4.18152610761e-10
7.40937876232e-12
4.15816591534e-10
6.77779361626e-12
4.13682239779e-10
6.22564073641e-12
4.11726993462e-10
5.75914885275e-12
4.09928214756e-10
5.38610225594e-12
4.08263598137e-10
5.11507943363e-12
4.06711997206e-10
4.9536422434e-12
4.05254671487e-10
4.90449067446e-12
4.03876364027e-10
4.95784683832e-12
4.02563479325e-10
5.07778949335e-12
5.18292158783e-12
9.5760126615e-10
1.09157323726e-10
9.82733332847e-10
2.42508464823e-10
9.95425958612e-10
3.03708183809e-10
9.9292958648e-10
3.18101676259e-10
9.78386812063e-10
3.07133551909e-10
9.55896473202e-10
2.84247333935e-10
9.28907735847e-10
2.56876961408e-10
8.99951743497e-10
2.28870085802e-10
8.70764930376e-10
2.02098712396e-10
8.42482109353e-10
1.77380559842e-10
8.1580853303e-10
1.54982097249e-10
7.91152896318e-10
1.34889617956e-10
7.68724354416e-10
1.16954761066e-10
7.48601231399e-10
1.00972216871e-10
7.30778808749e-10
8.67206132016e-11
7.15202123531e-10
7.39833117829e-11
7.01788212248e-10
6.25582377338e-11
6.90441008099e-10
5.22617699124e-11
6.81061167206e-10
4.29294838042e-11
6.73552419368e-10
3.4415301306e-11
6.67825552864e-10
2.6589909237e-11
6.63800800382e-10
1.9338918227e-11
6.61409153112e-10
1.25610132047e-11
6.60592963257e-10
6.16622304997e-12
6.61306078733e-10
7.43687315527e-14
6.63513670003e-10
-5.78628454736e-12
6.67191853917e-10
-1.14801548561e-11
6.72327194493e-10
-1.70653039063e-11
6.78916104505e-10
-2.2594183604e-11
6.86964167582e-10
-2.81141876977e-11
6.96485381809e-10
-3.36680110831e-11
7.07501313544e-10
-3.92938121601e-11
7.20040139328e-10
-4.50251689271e-11
7.34135545141e-10
-5.08908145583e-11
7.49825443787e-10
-5.69141342358e-11
7.67150464406e-10
-6.31124020911e-11
7.86152161401e-10
-6.94957369275e-11
8.06870885786e-10
-7.60657586525e-11
8.29343259125e-10
-8.281393669e-11
8.53599192289e-10
-8.97196387291e-11
8.79658398182e-10
-9.6747916652e-11
9.07526364419e-10
-1.03847108435e-10
9.3718977986e-10
-1.10946393288e-10
9.68611454388e-10
-1.17953511375e-10
1.00172483549e-09
-1.24752945748e-10
1.03642831278e-09
-1.31204950148e-10
1.07257960728e-09
-1.37145871712e-10
1.10999065936e-09
-1.42390229464e-10
1.14842353276e-09
-1.46734930842e-10
1.18758791366e-09
-1.49965807451e-10
1.22714076078e-09
-1.5186632764e-10
1.26668853044e-09
-1.52227950598e-10
1.30579216161e-09
-1.50861245183e-10
1.34397471969e-09
-1.47606757355e-10
1.38073135835e-09
-1.42344772814e-10
1.4155411575e-09
-1.35003524905e-10
1.44788042853e-09
-1.25565798097e-10
1.47723713346e-09
-1.14073993994e-10
1.50312600902e-09
-1.00633554816e-10
1.52510389893e-09
-8.54145928878e-11
1.54278497804e-09
-6.86519702286e-11
1.55585599791e-09
-5.06440757491e-11
1.56409144715e-09
-3.17485270977e-11
1.56736668289e-09
-1.23698134006e-11
1.56566492567e-09
7.06559857879e-12
1.55907438129e-09
2.61441308843e-11
1.54777542277e-09
4.44990720471e-11
1.53202200478e-09
6.18316968884e-11
1.51212306793e-09
7.79144111101e-11
1.48842785858e-09
9.25801904062e-11
1.4613158703e-09
1.0570736224e-10
1.43118997771e-09
1.17207008683e-10
1.39847093021e-09
1.2701583994e-10
1.36359185651e-09
1.35094202892e-10
1.32699200519e-09
1.41427659592e-10
1.28910941777e-09
1.46030315833e-10
1.25037264275e-09
1.48948123508e-10
1.21119195839e-09
1.50260627142e-10
1.17195081886e-09
1.50080105285e-10
1.13299832068e-09
1.48547719517e-10
1.09464338344e-09
1.45826989841e-10
1.05715108648e-09
1.4209548787e-10
1.02074128044e-09
1.37535928165e-10
9.85589294949e-10
1.32327801668e-10
9.51828355318e-10
1.2664040819e-10
9.1955322521e-10
1.20627749091e-10
8.88824592178e-10
1.1442536631e-10
8.59673776782e-10
1.08148939541e-10
8.32107438028e-10
1.01894299758e-10
8.06112045071e-10
9.57384687276e-11
7.81657969915e-10
8.97413562229e-11
7.58703124746e-10
8.3947807629e-11
7.37196117094e-10
7.83897679903e-11
7.1707893091e-10
7.30883996445e-11
6.98289162664e-10
6.8056050241e-11
6.80761854213e-10
6.3298014682e-11
6.64430969018e-10
5.88140677471e-11
6.492305597e-10
5.45997669466e-11
6.35095672403e-10
5.06475388573e-11
6.21963030341e-10
4.69475701568e-11
6.09771533921e-10
4.34885277308e-11
5.98462610578e-10
4.02581330587e-11
5.87980442292e-10
3.72436147562e-11
5.78272094825e-10
3.4432061365e-11
5.69287568208e-10
3.18106938623e-11
5.60979784877e-10
2.93670751201e-11
5.53304528244e-10
2.70892710267e-11
5.46220342209e-10
2.49659761295e-11
5.3968839934e-10
2.29866146993e-11
5.33672343943e-10
2.11414268498e-11
5.28138114242e-10
1.942154795e-11
5.23053747103e-10
1.78190887487e-11
5.18389167541e-10
1.63272225093e-11
5.14115965354e-10
1.49402846029e-11
5.1020716113e-10
1.36538883939e-11
5.06636965409e-10
1.24650591363e-11
5.03380536558e-10
1.13723834469e-11
5.00413746969e-10
1.03761651126e-11
4.97712972199e-10
9.47856545447e-12
4.95254925522e-10
8.68368485823e-12
4.93016568794e-10
7.99750345694e-12
4.90975138092e-10
7.42753136035e-12
4.8910831665e-10
6.98189985999e-12
4.87394536045e-10
6.66742246626e-12
4.85813188536e-10
6.48583839866e-12
4.84343930742e-10
6.4271051805e-12
4.82962883632e-10
6.45883721345e-12
6.51364554647e-12
9.52998464999e-10
9.36588544371e-11
9.76722881282e-10
2.18784039844e-10
9.94296999232e-10
2.86134057163e-10
1.00099651443e-09
3.11402152361e-10
9.97443070037e-10
3.10686987364e-10
9.86040671729e-10
2.95649723173e-10
9.69326681788e-10
2.73590942239e-10
9.49429408761e-10
2.48767349713e-10
9.27976357727e-10
2.23551754316e-10
9.0615127386e-10
1.992056346e-10
8.8478500912e-10
1.76348352884e-10
8.64441606452e-10
1.55233011526e-10
8.45489232953e-10
1.35907125478e-10
8.28155321785e-10
1.18306118967e-10
8.12568191222e-10
1.02307734714e-10
7.98787915685e-10
8.77635783021e-11
7.86828953673e-10
7.45171907672e-11
7.76676577138e-10
6.24141375181e-11
7.68298696266e-10
5.13073558096e-11
7.61654292369e-10
4.10596964113e-11
7.56699367808e-10
3.15448250971e-11
7.53391087351e-10
2.26471900926e-11
7.51690607397e-10
1.42614847003e-11
7.51564956018e-10
6.29186613015e-12
7.5298822754e-10
-1.34891089273e-12
7.55942272539e-10
-8.7403374124e-12
7.60417027872e-10
-1.59549177668e-11
7.6641058116e-10
-2.30588644251e-11
7.73929019816e-10
-3.01126290723e-11
7.82986104667e-10
-3.71712788603e-11
7.93602786184e-10
-4.42846983125e-11
8.05806566019e-10
-5.14975969999e-11
8.19630693632e-10
-5.88493007098e-11
8.35113176771e-10
-6.63733008908e-11
8.52295574674e-10
-7.40965341957e-11
8.71221534084e-10
-8.20383622496e-11
8.91935020247e-10
-9.02092223398e-11
9.14478188639e-10
-9.86089245917e-11
9.38888838674e-10
-1.07224582356e-10
9.65197389749e-10
-1.16028183298e-10
9.93423324222e-10
-1.2497384226e-10
1.02357105477e-09
-1.33994827545e-10
1.05562519844e-09
-1.43000522727e-10
1.08954528206e-09
-1.51873577804e-10
1.12525996882e-09
-1.60467612186e-10
1.16266098775e-09
-1.68605945515e-10
1.20159706768e-09
-1.76081924763e-10