/*--------------------------------*- C++ -*----------------------------------*\
  =========                 |
  \\      /  F ield         | OpenFOAM: The Open Source CFD Toolbox
   \\    /   O peration     | Website:  https://openfoam.org
    \\  /    A nd           | Version:  7
     \\/     M anipulation  |
\*---------------------------------------------------------------------------*/
FoamFile
{
    version     2.0;
    format      ascii;
    class       volScalarField;
    location    "1920";
    object      Ci;
}
// * * * * * * * * * * * * * * * * * * * * * * * * * * * * * * * * * * * * * //

dimensions      [0 -3 0 0 1 0 0];

internalField   nonuniform List<scalar> 
8192
(
10.0000000209
10.0000000979
10.0000002109
10.0000003216
10.0000004011
10.000000457
10.000000501
10.0000005404
10.0000005787
10.0000006153
10.0000006465
10.0000006663
10.0000006672
10.000000641
10.0000005783
10.0000004698
10.0000003058
10.0000000768
9.99999977274
9.99999938412
9.99999890021
9.99999831207
9.99999761138
9.99999679081
9.9999958436
9.99999476398
9.9999935471
9.9999921892
9.99999068787
9.99998904193
9.9999872521
9.99998532031
9.99998325058
9.99998104647
9.99997871668
9.99997627261
9.99997373047
9.99997110893
9.99996843227
9.99996572747
9.99996302796
9.99996036988
9.99995779614
9.9999553515
9.99995308669
9.99995105193
9.9999493007
9.99994788163
9.99994684175
9.99994621723
9.99994603688
9.99994631293
9.99994704632
9.99994821901
9.99994980195
9.99995174894
9.9999540061
9.9999565057
9.99995917595
9.99996193559
9.99996470713
9.99996741625
9.99997001008
9.99997245769
9.99997476379
9.99997695788
9.99997909493
9.99998123586
9.99998344447
9.99998577069
9.99998825484
9.99999091812
9.9999937714
9.99999680748
10.0000000094
10.0000033431
10.000006766
10.0000102221
10.0000136532
10.0000169953
10.0000201907
10.0000231845
10.0000259336
10.0000284022
10.000030568
10.000032416
10.0000339424
10.0000351484
10.0000360432
10.0000366382
10.0000369495
10.0000369938
10.0000367897
10.0000363541
10.0000357014
10.0000348484
10.0000338133
10.0000326143
10.0000312697
10.0000297979
10.0000282166
10.0000265435
10.0000247955
10.0000229894
10.0000211408
10.0000192657
10.0000173781
10.0000154927
10.000013622
10.0000117793
10.0000099753
10.0000082221
10.0000065287
10.0000049059
10.0000033615
10.0000019051
10.0000005436
9.99999928614
9.99999813928
9.99999711226
9.99999621174
9.99999544699
9.99999482335
9.99999434456
9.99999399787
9.99999373554
9.9999932885
9.99999366915
10.0000000589
10.0000002018
10.0000003821
10.0000005869
10.0000007989
10.0000010103
10.000001214
10.0000014052
10.0000015812
10.0000017409
10.0000018827
10.0000020043
10.0000021017
10.0000021703
10.000002204
10.0000021961
10.0000021392
10.0000020257
10.0000018477
10.0000015973
10.0000012635
10.0000008397
10.0000003197
9.99999969747
9.99999896796
9.99999812678
9.99999717071
9.99999609748
9.99999490637
9.99999359781
9.99999217423
9.99999063922
9.99998899883
9.99998725391
9.99998541553
9.99998349626
9.99998151207
9.99997948042
9.99997742283
9.99997536216
9.99997332546
9.99997134051
9.99996943876
9.99996765115
9.99996601111
9.99996454943
9.99996329738
9.9999622808
9.99996152333
9.99996104016
9.99996084181
9.99996092805
9.99996129289
9.99996191935
9.99996278601
9.9999638628
9.99996511847
9.99996651629
9.99996802116
9.99996959424
9.99997119997
9.99997280159
9.99997437036
9.99997588322
9.99997733326
9.99997872481
9.99998007873
9.99998142413
9.99998279914
9.99998424014
9.99998578356
9.9999874573
9.99998928481
9.99999127823
9.99999344306
9.99999577194
9.99999824969
10.0000008484
10.0000035336
10.0000062617
10.0000089871
10.0000116605
10.0000142365
10.0000166715
10.0000189294
10.0000209792
10.0000227987
10.0000243713
10.0000256884
10.0000267458
10.0000275456
10.0000280926
10.0000283961
10.0000284659
10.0000283042
10.0000279266
10.0000273493
10.0000265888
10.0000256625
10.000024588
10.0000233831
10.0000220655
10.0000206527
10.0000191622
10.0000176104
10.0000160139
10.0000143878
10.0000127475
10.0000111064
10.0000094785
10.0000078754
10.0000063096
10.0000047909
10.0000033301
10.0000019355
10.0000006165
9.99999938004
9.9999982344
9.99999718559
9.99999624115
9.99999540644
9.99999468853
9.99999409228
9.99999362449
9.99999328913
9.99999305971
9.99999297063
9.99999366507
10.0000000823
10.0000002601
10.0000004628
10.0000006835
10.0000009158
10.0000011609
10.000001414
10.0000016686
10.0000019181
10.0000021575
10.0000023819
10.0000025874
10.0000027698
10.0000029253
10.0000030492
10.0000031369
10.0000031831
10.0000031826
10.0000031295
10.0000030183
10.0000028424
10.0000025962
10.0000022743
10.0000018723
10.0000013865
10.0000008139
10.0000001527
9.9999994021
9.99999856299
9.99999763717
9.99999662873
9.99999554256
9.9999943866
9.9999931678
9.99999189711
9.99999058622
9.99998925067
9.99998790599
9.99998657134
9.99998526498
9.99998400823
9.99998282012
9.99998172179
9.99998073026
9.99997986335
9.99997913285
9.99997855007
9.99997811873
9.99997784136
9.9999777121
9.99997772423
9.99997786286
9.9999781136
9.99997845532
9.99997886974
9.99997933421
9.99997983179
9.99998034342
9.99998085742
9.9999813603
9.99998184547
9.99998230363
9.99998273268
9.99998312939
9.99998350081
9.99998385537
9.99998421143
9.99998458762
9.99998500934
9.99998549781
9.99998607719
9.999986765
9.99998757992
9.99998853305
9.99998963531
9.99999088889
9.99999229405
9.99999384125
9.99999551801
9.9999973024
9.99999917023
10.00000109
10.0000030303
10.0000049558
10.0000068339
10.0000086316
10.0000103209
10.0000118755
10.0000132753
10.0000145034
10.0000155486
10.0000164029
10.0000170633
10.0000175301
10.0000178035
10.0000178872
10.0000177881
10.0000175156
10.0000170806
10.0000164962
10.0000157757
10.0000149341
10.0000139857
10.0000129466
10.0000118313
10.0000106555
10.0000094332
10.0000081795
10.0000069071
10.0000056301
10.0000043596
10.0000031083
10.0000018856
10.0000007028
9.99999956762
9.99999848968
9.9999974753
9.99999653279
9.99999566717
9.99999488572
9.99999419249
9.99999359396
9.99999309339
9.99999269734
9.99999241219
9.99999222264
9.99999231308
9.9999932836
10.0000001078
10.0000003091
10.0000005257
10.0000007498
10.0000009733
10.0000011998
10.0000014336
10.0000016707
10.0000019077
10.0000021405
10.0000023652
10.0000025779
10.0000027745
10.0000029511
10.0000031037
10.0000032282
10.0000033204
10.0000033762
10.0000033911
10.0000033611
10.0000032819
10.0000031496
10.0000029605
10.0000027117
10.0000024008
10.0000020263
10.0000015878
10.0000010856
10.0000005219
9.99999989939
9.99999922317
9.99999849865
9.99999773415
9.99999693755
9.99999611978
9.99999529116
9.99999446507
9.99999365365
9.99999287142
9.9999921309
9.9999914457
9.99999082656
9.99999028383
9.9999898241
9.99998945243
9.99998916948
9.99998897403
9.99998886043
9.99998882166
9.99998884698
9.99998892537
9.99998904319
9.99998918771
9.9999893447
9.99998950205
9.99998964729
9.9999897714
9.99998986598
9.99998992664
9.99998994923
9.99998993253
9.99998987455
9.99998977642
9.99998964029
9.99998947456
9.99998929112
9.99998910755
9.99998894272
9.99998881738
9.99998874915
9.99998875454
9.99998884574
9.99998903395
9.99998932666
9.99998973074
9.99999024927
9.99999088399
9.99999163216
9.99999248898
9.99999344488
9.99999448819
9.99999560301
9.99999677203
9.99999797489
9.999999191
10.0000003983
10.0000015757
10.0000027025
10.0000037599
10.0000047309
10.0000056012
10.0000063589
10.0000069952
10.0000075041
10.0000078817
10.0000081261
10.0000082375
10.0000082183
10.0000080728
10.0000078073
10.0000074297
10.0000069491
10.0000063758
10.0000057209
10.0000049959
10.0000042128
10.0000033832
10.0000025194
10.0000016324
10.0000007336
9.99999983344
9.99999894212
9.99999806859
9.99999722192
9.9999964096
9.99999563932
9.99999491716
9.99999424955
9.99999364136
9.99999309809
9.99999262374
9.99999222331
9.99999189982
9.99999165779
9.99999149806
9.99999141389
9.99999145012
9.99999251907
10.0000001359
10.0000003598
10.0000005921
10.0000008251
10.0000010438
10.0000012522
10.0000014535
10.0000016564
10.0000018565
10.0000020519
10.0000022402
10.0000024187
10.0000025846
10.0000027351
10.000002867
10.0000029774
10.0000030629
10.0000031206
10.0000031473
10.0000031401
10.0000030963
10.0000030132
10.0000028888
10.0000027213
10.0000025097
10.0000022532
10.0000019528
10.0000016091
10.0000012252
10.0000008034
10.0000003495
9.99999986723
9.99999936541
9.9999988486
9.99999832809
9.99999780901
9.99999730387
9.99999681794
9.99999636312
9.99999594412
9.9999955701
9.99999524411
9.99999497102
9.99999475099
9.99999458419
9.99999446729
9.99999439655
9.9999943657
9.99999436866
9.99999439769
9.99999444596
9.99999450553
9.99999456972
9.99999463079
9.99999468238
9.99999471728
9.99999473028
9.99999471602
9.99999467159
9.99999459359
9.99999447999
9.99999432706
9.99999413288
9.99999389628
9.999993622
9.99999331906
9.99999300253
9.99999268908
9.99999239672
9.99999214005
9.99999193182
9.9999917805
9.99999169343
9.9999916751
9.99999172981
9.99999185944
9.99999206541
9.99999234637
9.99999270005
9.99999312136
9.99999360427
9.99999414032
9.99999472035
9.99999533332
9.99999596784
9.99999661132
9.99999725132
9.99999787498
9.99999847013
9.99999902507
9.99999952936
9.99999997375
10.0000003506
10.0000006539
10.0000008796
10.000001025
10.0000010888
10.0000010714
10.0000009741
10.0000007999
10.0000005529
10.0000002384
9.99999986253
9.99999943249
9.99999895575
9.99999844061
9.99999789513
9.99999732794
9.99999674702
9.99999616072
9.99999557645
9.99999500183
9.99999444335
9.99999390767
9.99999340018
9.99999292648
9.99999249085
9.99999209786
9.99999175087
9.99999145378
9.99999120914
9.99999102103
9.99999089026
9.9999908232
9.9999908095
9.99999087348
9.99999091354
9.99999192395
10.0000001618
10.000000406
10.0000006534
10.0000008994
10.0000011215
10.0000013196
10.000001499
10.0000016661
10.0000018305
10.0000019887
10.0000021385
10.0000022785
10.0000024067
10.000002521
10.0000026195
10.0000027
10.0000027604
10.0000027986
10.0000028128
10.0000028009
10.0000027615
10.0000026929
10.0000025944
10.0000024646
10.0000023041
10.0000021119
10.0000018907
10.0000016393
10.0000013637
10.0000010618
10.0000007438
10.0000004059
10.000000063
9.99999970864
9.99999936238
9.99999901484
9.9999986882
9.99999837134
9.99999808553
9.99999782012
9.99999759135
9.99999739093
9.99999722769
9.9999970959
9.99999699755
9.99999692822
9.99999688576
9.99999686594
9.9999968652
9.99999687942
9.99999690504
9.99999693818
9.99999697519
9.99999701173
9.99999704329
9.9999970647
9.99999707112
9.99999705808
9.99999702228
9.99999696068
9.99999687006
9.9999967458
9.99999658312
9.9999963787
9.99999613419
9.99999585722
9.99999556113
9.99999526179
9.99999497484
9.99999471258
9.99999448386
9.99999429375
9.99999414541
9.99999404027
9.99999397938
9.99999396266
9.99999398965
9.9999940585
9.99999416685
9.99999431104
9.99999448704
9.99999468987
9.99999491439
9.99999515472
9.99999540496
9.99999565854
9.999995909
9.99999614945
9.99999637333
9.99999657407
9.99999674574
9.99999688289
9.99999698109
9.99999703669
9.99999704735
9.99999701165
9.99999692938
9.99999680116
9.9999966286
9.99999641405
9.99999616066
9.99999587227
9.99999555324
9.9999952085
9.99999484322
9.99999446294
9.99999407315
9.9999936795
9.99999328735
9.99999290204
9.99999252842
9.99999217126
9.99999183467
9.99999152264
9.99999123846
9.9999909853
9.99999076562
9.9999905819
9.99999043587
9.99999032976
9.99999026434
9.99999024322
9.9999902631
9.99999033586
9.99999043352
9.99999061834
9.99999070935
9.99999161188
10.0000001844
10.0000004445
10.0000007042
10.0000009635
10.0000011933
10.000001389
10.0000015545
10.0000016985
10.0000018284
10.0000019551
10.0000020731
10.0000021809
10.0000022776
10.0000023615
10.0000024313
10.0000024855
10.0000025228
10.0000025418
10.0000025416
10.0000025208
10.000002479
10.0000024147
10.0000023287
10.0000022189
10.0000020884
10.0000019333
10.0000017609
10.0000015636
10.0000013558
10.0000011226
10.00000089
10.0000006312
10.0000003876
10.0000001167
9.9999998778
9.99999961121
9.99999939166
9.99999914749
9.99999895844
9.99999875333
9.99999860164
9.99999844674
9.99999833542
9.99999823313
9.99999816203
9.99999810648
9.99999807212
9.99999805332
9.9999980493
9.99999805768
9.99999807664
9.99999810427
9.99999813826
9.99999817563
9.99999821237
9.99999824365
9.99999826431
9.99999826981
9.99999825672
9.99999822242
9.99999816364
9.99999807526
9.99999795084
9.99999778532
9.99999757904
9.99999733971
9.99999708184
9.99999682254
9.99999657756
9.99999635809
9.99999617041
9.99999601647
9.99999589593
9.99999580706
9.99999574779
9.99999571541
9.99999570683
9.99999571826
9.9999957456
9.99999578444
9.99999583049
9.99999587967
9.99999592829
9.99999597299
9.99999601071
9.99999603858
9.99999605383
9.99999605376
9.99999603568
9.99999599711
9.99999593568
9.99999584944
9.99999573681
9.99999559686
9.99999542921
9.99999523429
9.99999501311
9.99999476744
9.99999449953
9.99999421221
9.99999390866
9.99999359247
9.9999932674
9.99999293745
9.99999260661
9.99999227897
9.99999195842
9.99999164879
9.9999913536
9.9999910762
9.99999081952
9.99999058627
9.99999037873
9.99999019889
9.99999004835
9.99998992845
9.99998984017
9.99998978437
9.99998976144
9.9999897725
9.99998981643
9.99998989755
9.99999000706
9.99999016536
9.99999032482
9.99999058009
9.99999071161
9.99999151452
10.0000002019
10.0000004744
10.0000007434
10.0000010148
10.0000012545
10.0000014532
10.0000016126
10.0000017415
10.0000018498
10.0000019462
10.0000020391
10.0000021218
10.0000021942
10.0000022551
10.0000023037
10.0000023386
10.0000023594
10.0000023648
10.0000023549
10.0000023279
10.0000022853
10.000002224
10.0000021481
10.0000020513
10.0000019434
10.0000018109
10.0000016749
10.0000015075
10.0000013511
10.0000011508
10.0000009854
10.0000007558
10.0000005957
10.0000003428
10.0000002022
9.99999993687
9.99999982508
9.99999956489
9.9999994821
9.99999925061
9.99999918874
9.99999900833
9.99999895816
9.99999883954
9.99999879893
9.9999987363
9.99999871084
9.99999868916
9.99999868507
9.99999869218
9.99999871132
9.99999874137
9.99999878084
9.99999882734
9.99999887681
9.99999892409
9.99999896301
9.99999898845
9.99999899646
9.99999898487
9.99999895036
9.99999888739
9.99999878744
9.99999864367
9.99999845535
9.99999823181
9.99999799066
9.99999775268
9.99999753558
9.99999735099
9.99999720368
9.99999709351
9.99999701749
9.99999697158
9.99999695137
9.99999695185
9.99999696751
9.99999699222
9.9999970197
9.99999704369
9.99999705861
9.99999705961
9.99999704295
9.99999700578
9.99999694625
9.99999686312
9.9999967558
9.99999662394
9.99999646755
9.99999628672
9.99999608188
9.99999585356
9.99999560272
9.99999533054
9.99999503871
9.99999472921
9.99999440454
9.99999406746
9.99999372117
9.99999336897
9.99999301447
9.99999266123
9.99999231292
9.99999197307
9.99999164512
9.99999133228
9.99999103754
9.99999076359
9.99999051279
9.99999028719
9.99999008849
9.99998991805
9.99998977688
9.99998966571
9.99998958496
9.9999895348
9.9999895152
9.99998952604
9.9999895667
9.99998963785
9.99998973658
9.99998986896
9.9999900202
9.99999022049
9.99999040379
9.99999069059
9.99999083913
9.9999915608
10.0000002149
10.0000004969
10.0000007724
10.0000010533
10.0000013034
10.0000015083
10.0000016674
10.0000017881
10.0000018825
10.0000019586
10.0000020281
10.0000020909
10.000002144
10.000002187
10.0000022195
10.0000022402
10.0000022493
10.000002245
10.000002229
10.0000021979
10.0000021564
10.0000020969
10.000002031
10.0000019414
10.0000018543
10.0000017318
10.0000016306
10.0000014704
10.0000013677
10.0000011625
10.0000010779
10.0000008169
10.0000007758
10.000000448
10.0000004759
10.0000000778
10.0000001879
9.99999973646
9.9999999145
9.99999945671
9.99999965625
9.99999926083
9.99999942235
9.99999914717
9.99999923567
9.99999909232
9.9999991208
9.99999907455
9.99999908575
9.99999909407
9.99999912205
9.99999916343
9.99999921808
9.99999928388
9.99999935631
9.99999942919
9.99999949484
9.99999954677
9.99999958029
9.99999959332
9.99999958275
9.99999954179
9.99999945906
9.99999932419
9.9999991351
9.99999890326
9.99999865169
9.99999840691
9.99999819042
9.99999801514
9.99999788485
9.99999779783
9.9999977489
9.99999773303
9.99999774595
9.99999778126
9.99999783119
9.99999788706
9.99999793996
9.99999798144
9.99999800422
9.99999800241
9.99999797181
9.99999790984
9.99999781479
9.99999768747
9.9999975277
9.99999733599
9.99999711325
9.99999686094
9.99999658078
9.99999627496
9.99999594589
9.99999559641
9.99999522959
9.99999484884
9.99999445778
9.99999406026
9.99999366023
9.99999326168
9.99999286859
9.9999924848
9.999992114
9.99999175959
9.99999142473
9.99999111217
9.99999082436
9.9999905633
9.99999033067
9.99999012767
9.99998995525
9.99998981387
9.99998970383
9.99998962494
9.99998957704
9.99998955942
9.9999895716
9.99998961268
9.99998968166
9.99998977881
9.9999899001
9.99999005315
9.99999021856
9.99999043419
9.99999062146
9.99999091615
9.99999106942
9.99999171918
10.0000002226
10.000000512
10.0000007931
10.0000010819
10.0000013418
10.0000015551
10.0000017181
10.0000018368
10.0000019229
10.0000019872
10.0000020387
10.0000020857
10.0000021234
10.0000021519
10.0000021718
10.0000021812
10.0000021817
10.0000021699
10.0000021504
10.0000021157
10.0000020771
10.0000020172
10.0000019629
10.0000018735
10.0000018105
10.0000016831
10.0000016254
10.0000014439
10.0000014177
10.0000011539
10.0000012026
10.000000812
10.0000009985
10.0000004225
10.0000008208
10.0000000034
10.0000006702
9.99999959602
10.0000005221
9.99999926692
10.0000003325
9.99999908413
10.000000072
9.99999906903
9.99999977057
9.99999916504
9.99999952063
9.99999928169
9.99999940858
9.99999938283
9.9999994438
9.99999950262
9.9999995826
9.99999967805
9.9999997837
9.99999989237
9.99999999465
10.0000000823
10.0000001494
10.0000001938
10.0000002125
10.000000197
10.0000001313
9.99999999979
9.99999979779
9.99999954028
9.99999925783
9.99999898549
9.99999874989
9.99999856533
9.99999843504
9.99999835382
9.99999831734
9.99999831988
9.99999835486
9.99999841439
9.99999848898
9.99999856818
9.99999864142
9.99999869887
9.99999873224
9.99999873509
9.99999870298
9.99999863346
9.99999852521
9.99999837876
9.999998195
9.99999797544
9.99999772221
9.9999974369
9.99999712164
9.99999677889
9.99999641177
9.99999602367
9.99999561854
9.99999520046
9.99999477394
9.9999943434
9.99999391351
9.99999348865
9.99999307327
9.99999267135
9.99999228679
9.9999919229
9.99999158277
9.99999126887
9.99999098339
9.99999072788
9.99999050364
9.99999031134
9.99999015149
9.99999002398
9.99998992872
9.99998986493
9.99998983214
9.99998982907
9.99998985511
9.99998990873
9.99998998898
9.9999900956
9.99999022434
9.99999038322
9.99999055099
9.99999076847
9.99999095364
9.99999124259
9.99999140101
9.99999197981
10.0000002255
10.0000005195
10.0000008044
10.0000010999
10.0000013692
10.0000015925
10.0000017625
10.0000018838
10.0000019666
10.0000020244
10.000002064
10.000002099
10.0000021244
10.0000021408
10.0000021501
10.0000021499
10.0000021435
10.0000021249
10.0000021034
10.0000020643
10.0000020304
10.0000019666
10.0000019266
10.0000018295
10.0000017968
10.0000016478
10.0000016496
10.0000014125
10.0000015013
10.0000011091
10.0000013786
10.000000717
10.0000013177
10.0000002152
10.0000013548
9.99999959855
10.0000015003
9.99999891093
10.0000016992
9.99999827973
10.0000018077
9.99999790787
10.000001641
9.99999796735
10.000001122
9.99999843472
10.0000004332
9.99999904779
9.99999992023
9.99999951767
9.9999997809
9.99999980772
9.99999993606
10.0000000733
10.0000002267
10.0000003894
10.0000005471
10.0000006878
10.0000008054
10.0000008971
10.0000009603
10.0000009836
10.0000009451
10.000000819
10.000000596
10.0000002945
9.99999995779
9.99999963368
9.99999935679
9.99999914359
9.99999899395
9.99999890236
9.99999886171
9.9999988648
9.99999890406
9.99999897015
9.99999905201
9.99999913757
9.999999215
9.99999927367
9.99999930495
9.99999930257
9.99999926237
9.99999918246
9.99999906205
9.99999890198
9.99999870345
9.99999846844
9.99999819909
9.9999978979
9.99999756729
9.99999720966
9.9999968279
9.99999642549
9.99999600636
9.99999557488
9.99999513571
9.9999946937
9.99999425369
9.99999382048
9.9999933986
9.9999929923
9.99999260543
9.99999224138
9.99999190309
9.99999159296
9.99999131289
9.99999106427
9.99999084806
9.99999066468
9.99999051431
9.99999039653
9.99999031101
9.9999902566
9.99999023278
9.99999023773
9.99999027112
9.99999033062
9.99999041602
9.99999052581
9.99999065709
9.99999081599
9.99999098365
9.99999119692
9.999991382
9.99999165741
9.99999182846
9.99999233354
10.0000002239
10.0000005202
10.0000008094
10.0000011102
10.000001388
10.0000016219
10.0000018012
10.0000019289
10.000002013
10.0000020684
10.0000021016
10.0000021277
10.0000021437
10.0000021501
10.0000021509
10.000002142
10.0000021304
10.0000021053
10.0000020832
10.0000020389
10.0000020112
10.0000019412
10.0000019178
10.0000018074
10.0000018099
10.0000016277
10.000001701
10.0000013837
10.000001618
10.0000010421
10.000001609
10.0000005488
10.0000017501
9.99999982711
10.0000021405
9.99999879634
10.0000028648
9.99999743304
10.0000039033
9.99999588499
10.0000050034
9.99999457784
10.0000056238
9.99999414633
10.0000051869
9.99999503707
10.0000036263
9.99999693314
10.000001718
9.99999881423
10.0000005156
9.99999993216
10.0000003302
10.0000004755
10.0000006958
10.0000009373
10.0000011717
10.0000013922
10.0000015847
10.0000017437
10.0000018693
10.0000019552
10.0000019691
10.0000018586
10.0000015955
10.000001206
10.0000007626
10.0000003444
10.0000000036
9.99999975514
9.99999959232
9.99999950008
9.99999946333
9.99999947148
9.99999951545
9.9999995847
9.99999966669
9.99999974797
9.99999981582
9.99999985942
9.99999987063
9.99999984411
9.99999977708
9.99999966887
9.99999952018
9.99999933273
9.99999910865
9.99999885036
9.99999856032
9.99999824115
9.99999789541
9.999997526
9.99999713547
9.99999672663
9.99999630326
9.99999586932
9.99999542938
9.99999498805
9.99999455024
9.99999412059
9.99999370374
9.99999330381
9.9999929247
9.9999925696
9.99999224141
9.99999194226
9.99999167397
9.99999143758
9.99999123395
9.99999106313
9.99999092523
9.99999081943
9.99999074543
9.99999070159
9.9999906877
9.99999070117
9.99999074249
9.999990808
9.9999908992
9.99999101213
9.99999114728
9.99999130588
9.99999147648
9.99999168408
9.99999187544
9.99999213336
9.99999232746
9.99999275668
10.0000002175
10.0000005138
10.0000008058
10.0000011108
10.0000013964
10.0000016411
10.0000018316
10.0000019684
10.0000020578
10.0000021141
10.0000021454
10.0000021653
10.0000021741
10.0000021722
10.0000021658
10.0000021492
10.0000021329
10.0000021017
10.0000020792
10.0000020301
10.0000020078
10.0000019321
10.000001923
10.0000018013
10.0000018334
10.0000016237
10.0000017567
10.0000013717
10.0000017304
10.0000009924
10.0000018284
10.0000003896
10.0000021841
9.9999994013
10.0000030101
9.99999779182
10.0000045842
9.99999530629
10.0000071333
9.99999186659
10.0000105378
9.99998793327
10.0000139246
9.99998487919
10.0000155884
9.99998464475
10.000013877
9.99998820676
10.0000090479
9.99999394868
10.0000039261
9.99999862349
10.0000013346
10.0000007605
10.0000012434
10.0000015903
10.0000019309
10.0000022925
10.0000025962
10.0000028307
10.0000030695
10.0000033298
10.0000034644
10.0000032453
10.0000025855
10.0000016286
10.0000006546
9.99999991397
9.99999950729
9.99999939347
9.99999947046
9.9999996306
9.999999804
9.99999996276
10.0000001029
10.0000002263
10.0000003319
10.000000415
10.0000004689
10.0000004873
10.0000004657
10.0000004021
10.0000002962
10.000000149
9.99999996234
9.99999973871
9.99999948053
9.99999919063
9.99999887165
9.99999852661
9.99999815826
9.99999776981
9.9999973642
9.99999694482
9.99999651439
9.99999607691
9.99999563653
9.9999951977
9.9999947649
9.99999434265
9.99999393523
9.99999354666
9.99999318048
9.9999928398
9.99999252714
9.99999224445
9.99999199323
9.99999177427
9.99999158815
9.99999143462
9.99999131363
9.99999122398
9.99999116546
9.99999113585
9.99999113545
9.99999116066
9.99999121327
9.99999128765
9.9999913881
9.99999150667
9.99999164967
9.99999180981
9.99999198873
9.99999219105
9.99999239661
9.99999263503
9.99999286275
9.99999321461
10.0000002076
10.0000005018
10.0000007976
10.0000011058
10.0000013977
10.0000016526
10.0000018553
10.0000020029
10.0000021011
10.0000021611
10.0000021946
10.0000022108
10.0000022143
10.0000022057
10.0000021932
10.00000217
10.0000021493
10.0000021134
10.0000020896
10.000002038
10.000002018
10.000001942
10.0000019389
10.0000018184
10.0000018602
10.000001652
10.0000017997
10.0000014118
10.0000017979
10.0000010358
10.000001942
10.0000003999
10.0000024086
9.99999926542
10.0000035303
9.9999972067
10.0000058653
9.99999356457
10.0000101857
9.99998756282
10.0000171526
9.99997888483
10.0000264802
9.99996887272
10.0000356042
9.99996158586
10.0000393819
9.9999625767
10.000033331
9.99997374548
10.0000195486
9.99998893213
10.0000070907
9.99999906398
10.0000023995
10.0000023097
10.000002874
10.0000034865
10.0000037663
10.0000041381
10.0000050206
10.0000058387
10.0000050233
10.0000013889
9.99999536289
9.99998880687
9.99998385675
9.99998181171
9.99998269228
9.99998559541
9.99998933686
9.99999293748
9.9999958589
9.99999796785
9.99999936875
10.0000002456
10.0000007687
10.0000010599
10.0000011941
10.0000012136
10.000001143
10.0000009999
10.0000007998
10.0000005564
10.0000002814
9.99999998288
9.9999996657
9.99999933187
9.99999898188
9.99999861552
9.999998233
9.99999783505
9.99999742356
9.99999700088
9.99999657046
9.99999613513
9.99999569943
9.99999526783
9.99999484499
9.99999443517
9.99999404263
9.99999367097
9.99999332363
9.99999300318
9.999992712
9.99999245152
9.99999222304
9.99999202685
9.99999186345
9.99999173201
9.99999163267
9.99999156344
9.99999152475
9.99999151317
9.9999915304
9.99999157079
9.99999163883
9.9999917252
9.99999183929
9.99999196614
9.99999212205
9.99999228546
9.99999247904
9.99999267594
9.999992904
9.99999312001
9.99999339118
9.99999366233
10.0000001937
10.000000483
10.000000781
10.0000010923
10.0000013899
10.0000016542
10.0000018696
10.0000020294
10.000002139
10.0000022053
10.0000022444
10.0000022591
10.0000022589
10.0000022452
10.000002227
10.0000021984
10.0000021727
10.0000021337
10.0000021066
10.000002056
10.0000020332
10.0000019645
10.0000019558
10.0000018534
10.000001879
10.0000017102
10.000001815
10.0000015097
10.0000017939
10.0000011998
10.0000018884
10.0000006689
10.0000022636
9.99999967505
10.0000032796
9.9999977083
10.0000056721
9.99999376928
10.0000107928
9.99998612434
10.0000207164
9.99997252841
10.0000375977
9.999951684
10.0000611249
9.99992681222
10.0000842924
9.9999092939
10.0000923772
9.99991462533
10.0000737753
9.99994574131
10.0000377467
9.99998241815
10.0000103573
10.0000014859
10.0000044494
10.0000046999
10.0000045404
10.0000076369
10.0000116243
10.0000063186
9.9999802284
9.99993168947
9.99987216507
9.9998196864
9.99978930927
9.9997869198
9.99980868195
9.99984501826
9.99988548073
9.99992218458
9.99995110775
9.99997155797
9.99998480664
9.99999280087
9.99999736204
9.99999986182
10.000001198
10.0000018939
10.0000022219
10.0000023085
10.00000221
10.0000019584
10.0000015836
10.0000011186
10.000000597
10.0000000489
9.99999949718
9.99999895649
9.99999843425
9.99999793248
9.99999744995
9.99999698395
9.99999653183
9.99999609147
9.9999956616
9.99999524318
9.999994838
9.99999444857
9.99999407772
9.99999372838
9.99999340343
9.99999310528
9.99999283619
9.99999259749
9.99999239062
9.99999221558
9.99999207324
9.9999919621
9.99999188313
9.99999183298
9.99999181378
9.99999181954
9.99999185529
9.99999191066
9.99999199636
9.99999209453
9.99999222587
9.99999236001
9.99999253389
9.99999269742
9.99999291239
9.99999309662
9.99999335566
9.99999353573
9.99999385932
9.9999940299
10.0000001775
10.0000004604
10.0000007613
10.0000010758
10.0000013772
10.0000016494
10.0000018762
10.0000020495
10.0000021708
10.0000022485
10.0000022918
10.0000023075
10.0000023055
10.0000022885
10.0000022656
10.0000022334
10.0000022029
10.0000021628
10.0000021313
10.0000020847
10.0000020565
10.0000020001
10.0000019799
10.0000019053
10.0000019019
10.0000017921
10.0000018259
10.0000016461
10.000001764
10.0000014389
10.0000017518
10.0000011078
10.0000018841
10.0000005016
10.0000024032
9.99999924331
10.0000039105
9.99999641401
10.0000077979
9.99998991491
10.0000170818
9.99997564842
10.0000371662
9.99994727341
10.0000747387
9.99989959522
10.0001309742
9.99983925588
10.0001880595
9.99979708555
10.0002052159
9.99981515912
10.0001536231
9.99989571143
10.00006468
9.99997985683
10.0000113091
10.0000023447
10.0000109595
10.0000313397
10.0000073442
9.99985814642
9.99953986424
9.99909709293
9.99864413774
9.99830483015
9.99815917054
9.99822002028
9.99844224724
9.99875262261
9.9990788355
9.99936856724
9.99959586896
9.99975715054
9.9998622895
9.99992600048
9.99996218161
9.99998150824
9.99999121912
9.9999958318
9.99999798609
9.99999910877
9.99999987863
10.0000005424
10.000001129
10.0000015853
10.0000018529
10.0000019006
10.0000017301
10.0000013688
10.000000858
10.0000002423
9.99999956327
9.99999885533
9.99999814482
9.99999745061
9.9999967849
9.99999615563
9.99999556843
9.99999502616
9.99999453053
9.99999408178
9.99999368013
9.99999332455
9.99999301482
9.99999274889
9.99999252666
9.99999234472
9.9999922038
9.99999209842
9.99999203142
9.99999199382
9.9999919928
9.99999201329
9.99999207059
9.99999213895
9.99999224797
9.99999235343
9.99999250933
9.99999264022
9.9999928405
9.99999298299
9.99999322866
9.99999336228
9.99999366197
9.99999374384
9.99999412831
9.99999410457
10.0000001579
10.0000004331
10.0000007342
10.000001052
10.0000013583
10.0000016369
10.0000018735
10.0000020594
10.0000021937
10.000002281
10.0000023301
10.0000023487
10.0000023466
10.0000023283
10.0000023021
10.0000022678
10.0000022334
10.0000021935
10.0000021584
10.0000021164
10.0000020837
10.0000020392
10.0000020098
10.0000019595
10.0000019344
10.0000018726
10.0000018541
10.0000017718
10.0000017671
10.0000016482
10.0000016766
10.0000014867
10.0000016016
10.0000012489
10.0000016104
10.0000008126
10.0000019332
9.99999975745
10.0000032819
9.99999679102
10.0000078943
9.99998826359
10.0000217227
9.99996520175
10.0000577661
9.99991058595
10.0001359699
9.99980583973
10.0002659234
9.99966210746
10.0004042364
9.99956083692
10.0004420503
9.99961054587
10.0003093664
9.99981896539
10.0000762814
9.99999333137
10.000092631
10.0000273945
9.99936690792
9.99775022511