/*--------------------------------*- C++ -*----------------------------------*\
  =========                 |
  \\      /  F ield         | OpenFOAM: The Open Source CFD Toolbox
   \\    /   O peration     | Website:  https://openfoam.org
    \\  /    A nd           | Version:  7
     \\/     M anipulation  |
\*---------------------------------------------------------------------------*/
FoamFile
{
    version     2.0;
    format      ascii;
    class       surfaceScalarField;
    location    "1920";
    object      phi;
}
// * * * * * * * * * * * * * * * * * * * * * * * * * * * * * * * * * * * * * //

dimensions      [0 3 -1 0 0 0 0];

internalField   nonuniform List<scalar> 
16192
(
6.92919194474e-10
2.44580801165e-10
4.93555451655e-10
1.99363737755e-10
3.64814672857e-10
1.2874077465e-10
2.82227983022e-10
8.25866880162e-11
2.27598786964e-10
5.46291969901e-11
1.89983063851e-10
3.76157264427e-11
1.63037669505e-10
2.69453997428e-11
1.43049432994e-10
1.99882436966e-11
1.27783633389e-10
1.52658083464e-11
1.15847497425e-10
1.19361460781e-11
1.06340364215e-10
9.50714457819e-12
9.86585695599e-11
7.68180720214e-12
9.23839225928e-11
6.27466067573e-12
8.72180650591e-11
5.16587241728e-12
8.29426119737e-11
4.27546920064e-12
7.93941804126e-11
3.54844898526e-12
7.64482689133e-11
2.94593034346e-12
7.40085538599e-11
2.43973544186e-12
7.19995965867e-11
2.00897935872e-12
7.03617564005e-11
1.63786413115e-12
6.90475667173e-11
1.31421567527e-12
6.80191044629e-11
1.02849049037e-12
6.72460485454e-11
7.73086617437e-13
6.67042258978e-11
5.41856042435e-13
6.63745089475e-11
3.29753292005e-13
6.62419705922e-11
1.32577910048e-13
6.6295230707e-11
-5.32170626533e-14
6.65259465598e-11
-2.30669001012e-13
6.69284118675e-11
-4.02414339668e-13
6.7499239748e-11
-5.70772458722e-13
6.82371096872e-11
-7.37809718094e-13
6.91425619919e-11
-9.05386915851e-13
7.02178259117e-11
-1.07519299755e-12
7.14666692517e-11
-1.24876649806e-12
7.2894257605e-11
-1.42750522604e-12
7.45070112875e-11
-1.61266389313e-12
7.63124468287e-11
-1.80533876191e-12
7.83189887102e-11
-2.00643779564e-12
8.05357347697e-11
-2.21663444289e-12
8.29721570506e-11
-2.43630295984e-12
8.56377175492e-11
-2.66543345542e-12
8.85413777709e-11
-2.90352554857e-12
9.16909809859e-11
-3.14946124218e-12
9.50924899751e-11
-3.40136023105e-12
9.87490696824e-11
-3.65642500351e-12
1.02660017547e-10
-3.91078830442e-12
1.06819562442e-10
-4.1593819518e-12
1.11215579164e-10
-4.39585213094e-12
1.15828294438e-10
-4.61255113041e-12
1.20629092114e-10
-4.80063624671e-12
1.25579550252e-10
-4.95030190669e-12
1.30630858021e-10
-5.05115917994e-12
1.35723756222e-10
-5.09275967644e-12
1.40789123646e-10
-5.06524108557e-12
1.45749290858e-10
-4.96005491219e-12
1.50520113093e-10
-4.77072529831e-12
1.55013774042e-10
-4.49358024451e-12
1.59142224237e-10
-4.1283858926e-12
1.62821069964e-10
-3.6787974133e-12
1.65973625224e-10
-3.1525217626e-12
1.68534735217e-10
-2.56108965132e-12
1.70453924506e-10
-1.91918000007e-12
1.7169746331e-10
-1.24353854258e-12
1.72249110446e-10
-5.516541534e-13
1.7210954125e-10
1.39555880674e-13
1.71294720617e-10
8.14801290848e-13
1.69833648256e-10
1.46104644453e-12
1.67765903195e-10
2.06771160705e-12
1.65139317413e-10
2.62654352491e-12
1.62007981023e-10
3.13128420852e-12
1.58430635231e-10
3.57728270291e-12
1.54469392862e-10
3.9611678059e-12
1.50188653107e-10
4.28065342718e-12
1.45654059773e-10
4.5344954199e-12
1.40931379861e-10
4.72257089179e-12
1.36085241901e-10
4.84601878078e-12
1.3117774729e-10
4.90736649886e-12
1.26267038374e-10
4.91057348098e-12
1.21405951937e-10
4.86094543303e-12
1.16640899289e-10
4.76490802737e-12
1.12011088511e-10
4.62966443561e-12
1.07548154715e-10
4.46278761341e-12
1.03276202436e-10
4.27180790728e-12
9.92122111893e-11
4.06385018314e-12
9.53667179043e-11
3.84535672012e-12
9.1744675882e-11
3.62191094711e-12
8.83463927504e-11
3.39815823716e-12
8.51684668907e-11
3.17780766127e-12
8.22046629609e-11
2.96369270094e-12
7.94466900634e-11
2.75786878618e-12
7.688486453e-11
2.56172851694e-12
7.45086543337e-11
2.37612017752e-12
7.23071113123e-11
2.20145979538e-12
7.02692034679e-11
2.03783116969e-12
6.83840617176e-11
1.88507132696e-12
6.66411561787e-11
1.74284105386e-12
6.50304158748e-11
1.61068142033e-12
6.35423043285e-11
1.4880579257e-12
6.21678614846e-11
1.37439414868e-12
6.08987205971e-11
1.26909678131e-12
5.97271069723e-11
1.17157378909e-12
5.86458238933e-11
1.08124719448e-12
5.76482298864e-11
9.97561784026e-13
5.67282102664e-11
9.19990763716e-13
5.58801452664e-11
8.48039253638e-13
5.50988760847e-11
7.8124627649e-13
5.43796699441e-11
7.19185853168e-13
5.37181843982e-11
6.61467633139e-13
5.31104311305e-11
6.0773753703e-13
5.25527386063e-11
5.57678756279e-13
5.20417130387e-11
5.11013596735e-13
5.1574196075e-11
4.67506590181e-13
5.11472175938e-11
4.26969560965e-13
5.07579405389e-11
3.89269402801e-13
5.04035942174e-11
3.54339807385e-13
5.00813900934e-11
3.22198569237e-13
4.97884122538e-11
2.92973118019e-13
4.95214699855e-11
2.66938195143e-13
4.92768942502e-11
2.44572172675e-13
4.90502484995e-11
2.26642489593e-13
4.88359073374e-11
2.14338030672e-13
4.86264258714e-11
2.09478207998e-13
4.84115750297e-11
2.14847231626e-13
4.81768504488e-11
2.34720318518e-13
4.79012272502e-11
2.7561809058e-13
4.75543026325e-11
3.46917431113e-13
4.70954189883e-11
4.58888709254e-13
5.88775713279e-13
9.53404556966e-10
2.28676231233e-10
8.59630504606e-10
2.93137773833e-10
7.4507001763e-10
2.43301244047e-10
6.41870090702e-10
1.85786597583e-10
5.56659228439e-10
1.3984004255e-10
4.88235871009e-10
1.06039067672e-10
4.33578353283e-10
8.16029017466e-11
3.89734051794e-10
6.38325299785e-11
3.54289370803e-10
5.07104746851e-11
3.25387598258e-10
4.08379045729e-11
3.01629084277e-10
3.32656451661e-11
2.81961493493e-10
2.73493853138e-11
2.65589110537e-10
2.26470317557e-11
2.51904543512e-10
1.88504284426e-11
2.40439111276e-10
1.57408914074e-11
2.30827229389e-10
1.31603219144e-11
2.22780846373e-10
1.09923055857e-11
2.16070981264e-10
9.14959408032e-12
2.10514264652e-10
7.5656909347e-12
2.05963019914e-10
6.18910540402e-12
2.02297869664e-10
4.97936417675e-12
1.99422161825e-10
3.90419844965e-12
1.97257721721e-10
2.93752886818e-12
1.95741581699e-10
2.05800039802e-12
1.94823439642e-10
1.24790203489e-12
1.94463666764e-10
4.92359990712e-13
1.94631733184e-10
-2.21271602715e-13
1.95304952869e-10
-9.03873965384e-13
1.96467473351e-10
-1.56491711179e-12
1.98109454616e-10
-2.21273287568e-12
2.00226391007e-10
-2.85472199707e-12
2.02818537694e-10
-3.49750610595e-12
2.05890408347e-10
-4.14703267786e-12
2.09450313676e-10
-4.8086372964e-12
2.13509911235e-10
-5.48706465791e-12
2.18083736608e-10
-6.18644751448e-12
2.23188684048e-10
-6.91024084984e-12
2.28843402401e-10
-7.66110723922e-12
2.35067568788e-10
-8.44074846747e-12
2.41881000133e-10
-9.24967861683e-12
2.49302560622e-10
-1.00869351274e-11
2.57348824465e-10
-1.09497276734e-11
2.6603245795e-10
-1.18330304165e-11
2.75360296596e-10
-1.27291323127e-11
2.85331112637e-10
-1.36271726602e-11
2.95933099234e-10
-1.45127051643e-11
3.07141139468e-10
-1.53673516637e-11
3.18913981892e-10
-1.61686238451e-11
3.3119150355e-10
-1.68900025797e-11
3.43892300835e-10
-1.75013645243e-11
3.56911894218e-10
-1.79698282434e-11
3.70121854791e-10
-1.82610553894e-11
3.83370145223e-10
-1.83409891555e-11
3.96482913937e-10
-1.81779528868e-11
4.09267890276e-10
-1.77449789603e-11
4.21519413269e-10
-1.70222010647e-11
4.33024992246e-10
-1.59991174264e-11
4.43573146675e-10
-1.46765041549e-11
4.52962095531e-10
-1.30677158268e-11
4.61008671637e-10
-1.11990730396e-11
4.67556658396e-10
-9.10905696956e-12
4.7248366569e-10
-6.84617285228e-12
4.7570576054e-10
-4.46562357217e-12
4.77179386662e-10
-2.02527473051e-12
4.76900577192e-10
4.18366746385e-13
4.7490193386e-10
2.81344186517e-12
4.71248156145e-10
5.11481705649e-12
4.66030935868e-10
7.28492020406e-12
4.59363877188e-10
9.29358569076e-12
4.51377870964e-10
1.11172689597e-11
4.42217088279e-10
1.27380388973e-11
4.32035536026e-10
1.41426886517e-11
4.20993973298e-10
1.53221799835e-11
4.09256942333e-10
1.6271485734e-11
3.96989710028e-10
1.69897583926e-11
3.84355023009e-10
1.74806572969e-11
3.71509712454e-10
1.7752625342e-11
3.5860131162e-10
1.78189199998e-11
3.45764932512e-10
1.76972682343e-11
3.33120670241e-10
1.74091126845e-11
3.2077175758e-10
1.69785188195e-11
3.08803598454e-10
1.64308884671e-11
2.97283693286e-10
1.57916553995e-11
2.8626236485e-10
1.50851221176e-11
2.75774118387e-10
1.43335483434e-11
2.65839435406e-10
1.35565412084e-11
2.56466800535e-10
1.27707428719e-11
2.47654787498e-10
1.19897732756e-11
2.39394069259e-10
1.12243665723e-11
2.31669260698e-10
1.04826362443e-11
2.24460540585e-10
9.77041091975e-12
2.17745031535e-10
9.09159501095e-12
2.1149793902e-10
8.44852162052e-12
2.05693465836e-10
7.84227719653e-12
2.00305526461e-10
7.27298702966e-12
1.95308289571e-10
6.74005768697e-12
1.90676576977e-10
6.24237706268e-12
1.86386145632e-10
5.77847549299e-12
1.82413876323e-10
5.34665270026e-12
1.7873788937e-10
4.94507582322e-12
1.75337604302e-10
4.57185360842e-12
1.72193757245e-10
4.22509146485e-12
1.69288387062e-10
3.90293144238e-12
1.66604798682e-10
3.60358066802e-12
1.64127510169e-10
3.32533113436e-12
1.61842188112e-10
3.0665733284e-12
1.5973557468e-10
2.82580570502e-12
1.57795408149e-10
2.60164179742e-12
1.56010337881e-10
2.39281646171e-12
1.54369833367e-10
2.1981927458e-12
1.52864086303e-10
2.01677077798e-12
1.51483903175e-10
1.84770028783e-12
1.50220585073e-10
1.69029852125e-12
1.4906578962e-10
1.54407582675e-12
1.48011368663e-10
1.40877170185e-12
1.47049172898e-10
1.28440507408e-12
1.46170812733e-10
1.17134369581e-12
1.45367361619e-10
1.07039924242e-12
1.44628986596e-10
9.82956535557e-13
1.43944490443e-10
9.1114725315e-13
1.43300757907e-10
8.58078351807e-13
1.42682125007e-10
8.28117951507e-13
1.42069769696e-10
8.27208356913e-13
1.41441431951e-10
8.6306268762e-13
1.40772327828e-10
9.44725300831e-13
1.40039488928e-10
1.07975813646e-12
1.39236149625e-10
1.26222807302e-12
1.42911747553e-12
9.76220603771e-10
1.89955610712e-10
9.62958222529e-10
3.06400135609e-10
9.06017499752e-10
3.00241946101e-10
8.33561054367e-10
2.58243022298e-10
7.60585166877e-10
2.12815909738e-10
6.93503925884e-10
1.7312028851e-10
6.34391144041e-10
1.40715663545e-10
5.83354092095e-10
1.14869562021e-10
5.39712044831e-10
9.43525022486e-11
5.02545348615e-10
7.80045813522e-11
4.70933935563e-10
6.48770391253e-11
4.44049081306e-10
5.42342208927e-11
4.21178835519e-10
4.55172593668e-11
4.01725460418e-10
3.83037859493e-11
3.85192600289e-10
3.22737346143e-11
3.71170029987e-10
2.71828760529e-11
3.59319199915e-10
2.28431203527e-11
3.49360685209e-10
1.91080944335e-11
3.41063730492e-10
1.58626323602e-11
3.34237718672e-10
1.3015105094e-11
3.2872527868e-10
1.04917933179e-11
3.24396738985e-10
8.23272868019e-12
3.21145665921e-10
6.18859397175e-12
3.18885268394e-10
4.3183915839e-12
3.17545491855e-10
2.58767396433e-12
3.17070659841e-10
9.67189238238e-13
3.17417550138e-10
-5.68162719932e-13
3.18553813913e-10
-2.04013651399e-12
3.20456665119e-10
-3.4677649608e-12
3.23111781956e-10
-4.86784414275e-12
3.26512368147e-10
-6.25530035252e-12
3.3065832919e-10
-7.64345699666e-12
3.35555522626e-10
-9.04421363143e-12
3.41215043485e-10
-1.04681433279e-11
3.47652505978e-10
-1.19245100144e-11
3.5488728157e-10
-1.34212036897e-11
3.62941650871e-10
-1.49645885454e-11
3.71839824251e-10
-1.65592568981e-11
3.81606782552e-10
-1.82076810777e-11
3.92266887654e-10
-1.99097561769e-11
4.03842211826e-10
-2.16622300992e-11
4.16350538965e-10
-2.34580241126e-11
4.29802999375e-10
-2.5285458863e-11
4.44201317991e-10
-2.71274178906e-11
4.59534683554e-10
-2.89605043878e-11
4.75776288595e-10
-3.07542757943e-11
4.92879644719e-10
-3.24706731172e-11
5.10774846778e-10
-3.40637912355e-11
5.29365033979e-10
-3.54801554738e-11
5.48523369787e-10
-3.66596666794e-11
5.68090917269e-10
-3.75373431118e-11
5.87875810006e-10
-3.80459168376e-11
6.07654092634e-10
-3.81192421751e-11
6.27172528373e-10
-3.76963609166e-11
6.46153544762e-10
-3.67259698044e-11
6.64302332973e-10
-3.5170966013e-11
6.81315939214e-10
-3.30127028596e-11
6.96893995684e-10
-3.02545422884e-11
7.10750519129e-10
-2.69242234607e-11
7.22625963942e-10
-2.30745044146e-11
7.32298491467e-10
-1.87815732643e-11
7.39593309294e-10
-1.41409812902e-11
7.44389052961e-10
-9.26135941181e-12
7.4662058923e-10
-4.25680444074e-12
7.46278232184e-10
7.6072906624e-13
7.43403976656e-10
5.68770128707e-12
7.38085747694e-10
1.04330481917e-11
7.30450706666e-10
1.49199613872e-11
7.20658454807e-10
1.90858353328e-11
7.08894687869e-10
2.28810311769e-11
6.95365532362e-10
2.62671870568e-11
6.8029252042e-10
2.92156906949e-11
6.63907979775e-10
3.17067082116e-11
6.46450557811e-10
3.37288929365e-11
6.28160648877e-10
3.52796503354e-11
6.0927562392e-10
3.6365663285e-11
5.90024923866e-10
3.70033046575e-11
5.70625233872e-10
3.72185878274e-11
5.51276058038e-10
3.70464207661e-11
5.32156039591e-10
3.65291070868e-11
5.1342031071e-10
3.57142232316e-11
4.951990349e-10
3.46521397694e-11
4.77597156314e-10
3.3393509739e-11
4.60695237079e-10
3.19870177067e-11
4.44551167935e-10
3.04775946978e-11
4.29202492742e-10
2.89051947543e-11
4.14669085702e-10
2.73041296158e-11
4.00955951996e-10
2.57028882631e-11
3.88055970248e-10
2.41243313391e-11
3.75952449e-10
2.25861424176e-11
3.64621418052e-10
2.11014288053e-11
3.54033616723e-10
1.96793853949e-11
3.44156171154e-10
1.83259584157e-11
3.3495397409e-10
1.70444676957e-11
3.26390793017e-10
1.58361637506e-11
3.18430139231e-10
1.4700709308e-11
3.11035932325e-10
1.36365839446e-11
3.04172993672e-10
1.26414161835e-11
2.97807399841e-10
1.17122505442e-11
2.919067232e-10
1.08457583291e-11
2.86440183227e-10
1.00384011824e-11
2.81378727992e-10
9.28655588139e-12
2.76695061981e-10
8.58660807954e-12
2.7236363291e-10
7.93502163457e-12
2.68360587736e-10
7.32838932853e-12
2.64663705255e-10
6.76346976838e-12
2.61252311033e-10
6.23721468008e-12
2.5810717814e-10
5.74679004802e-12
2.55210416113e-10
5.28959431143e-12
2.52545348597e-10
4.86327636284e-12
2.50096379435e-10
4.46575619171e-12
2.47848845101e-10
4.09525084396e-12
2.45788850908e-10
3.75030879234e-12
2.43903086578e-10
3.42985591828e-12
2.42178616628e-10
3.13325699794e-12
2.40602639652e-10
2.86039682005e-12
2.3916221182e-10
2.61178563459e-12
2.37843931279e-10
2.38869307856e-12
2.36633587164e-10
2.19331305982e-12
2.35515789864e-10
2.02895594061e-12
2.34473628985e-10
1.90024953525e-12
2.33488462524e-10
1.81329351606e-12
2.32540054389e-10
1.77562434948e-12
2.31607489036e-10
1.7956345176e-12
2.30671658351e-10
1.88056090365e-12
2.29720676765e-10
2.03074304457e-12
2.28758606052e-10
2.22429273634e-12
2.38034771339e-12
9.71748656427e-10
1.55706933818e-10
9.86604275358e-10
2.9154449542e-10
9.68001647103e-10
3.18844552149e-10
9.2755956903e-10
2.98685078163e-10
8.77136023477e-10
2.63239433459e-10
8.24257724805e-10
2.25998565476e-10
7.73079356402e-10
1.91894010292e-10
7.25638429768e-10
1.62310467049e-10
6.82752358954e-10
1.37238551533e-10
6.44575077056e-10
1.1618184184e-10
6.10922787533e-10
9.85293074168e-11
5.81457729834e-10
8.36992576027e-11
5.55788462822e-10
7.11865057031e-11
5.33522357354e-10
6.05698711282e-11
5.14291298198e-10
5.15047739487e-11
4.97762693186e-10
4.371146179e-11
4.83642656267e-10
3.69631386302e-11
4.71675210399e-10
3.10755223828e-11
4.61639631935e-10
2.58981937211e-11
4.53347082369e-10
2.13076384699e-11
4.46637125943e-10
1.72017345649e-11
4.41374427743e-10
1.34954128157e-11
4.37445760734e-10
1.01172481321e-11
4.34757361416e-10
7.00677937626e-12
4.3323262802e-10
4.11239725664e-12
4.32810133182e-10
1.38967549752e-12
4.33441913661e-10
-1.19995015956e-12
4.35091994129e-10
-3.69022223346e-12
4.37735107631e-10
-6.1108819243e-12
4.41355574823e-10
-8.48831293347e-12
4.45946302024e-10
-1.08460272336e-11
4.51507861275e-10
-1.32050139609e-11
4.58047615383e-10
-1.55839634609e-11
4.65578850069e-10
-1.79993717269e-11
4.74119873334e-10
-2.04655249953e-11
4.83693039672e-10
-2.2994359766e-11
4.94323653322e-10
-2.55951900018e-11
5.06038701502e-10
-2.82742910097e-11
5.18865365333e-10
-3.10343290473e-11
5.32829254593e-10
-3.38736278683e-11
5.47952313057e-10
-3.67852694011e-11
5.64250346552e-10
-3.97560369656e-11
5.81730137217e-10
-4.27652275485e-11
6.0038612857e-10
-4.57833860702e-11
6.20196698434e-10
-4.87710500593e-11
6.41120084318e-10
-5.16776366525e-11
6.63090088395e-10
-5.44406515671e-11
6.86011766728e-10
-5.69854435867e-11
7.09757392898e-10
-5.92257556094e-11
7.34163070183e-10
-6.10653181939e-11
7.59026430517e-10
-6.2400678296e-11
7.84105884385e-10
-6.31253465184e-11
8.09121854118e-10
-6.31351890223e-11
8.33760327919e-10
-6.23348134131e-11
8.5767891994e-10
-6.06445423404e-11
8.80515436488e-10
-5.80074650575e-11
9.01898749806e-10
-5.43960007753e-11
9.21461573556e-10
-4.98173527779e-11
9.38854497081e-10
-4.43171358305e-11
9.53760356297e-10
-3.79803543845e-11
9.6590773498e-10
-3.09289442569e-11
9.75082221869e-10
-2.33154615222e-11
9.81134154825e-10
-1.53132862042e-11
9.83982062784e-10
-7.10470631097e-12
9.83611784781e-10
1.13101319554e-12
9.8007202077e-10
9.22747128858e-12
9.7346754171e-10
1.70375326974e-11
9.63951302626e-10
2.44362048728e-11
9.51716433369e-10
3.1320707487e-11
9.36988730737e-10
3.76087348978e-11
9.20019905528e-10
4.32360113664e-11
9.01081523929e-10
4.81540693505e-11
8.80459378912e-10
5.2328848237e-11
8.58447967682e-10
5.57402971812e-11
8.35344818754e-10
5.83827903683e-11
8.11444566231e-10
6.02659051607e-11
7.87032860368e-10
6.14149983277e-11
7.62380385295e-10
6.18710494443e-11
7.37737375695e-10
6.16894159621e-11
7.13329049831e-10
6.09374179542e-11
6.8935229895e-10
5.96909588674e-11
6.65973821728e-10
5.80306018457e-11
6.43329713127e-10
5.60376036019e-11
6.21526358228e-10
5.37903585657e-11
6.00642372342e-10
5.13615674864e-11
5.80731279648e-10
4.88162755183e-11
5.61824624898e-10
4.62107737848e-11
5.43935251314e-10
4.35922527785e-11
5.27060534148e-10
4.09990410758e-11
5.11185420354e-10
3.84612505327e-11
4.96285180245e-10
3.60016650577e-11
4.82327822992e-10
3.36367406757e-11
4.69276162119e-10
3.13776192251e-11
4.57089541336e-10
2.92310903352e-11
4.45725245913e-10
2.72004629258e-11
4.3513963319e-10
2.52863276442e-11
4.25289018872e-10
2.34872056716e-11
4.16130355781e-10
2.18000883996e-11
4.07621739409e-10
2.02208776586e-11
3.99722771275e-10
1.87447387099e-11
3.92394807191e-10
1.73663788908e-11
3.8560111352e-10
1.6080264418e-11
3.79306950735e-10
1.4880786827e-11
3.73479600021e-10
1.37623892579e-11
3.68088345601e-10
1.27196614523e-11
3.63104422628e-10
1.17474110816e-11
3.58500938209e-10
1.08407179238e-11
3.54252770916e-10
9.99497649333e-12
3.50336452529e-10
9.20593202864e-12
3.4673003403e-10
8.46971422087e-12
3.43412936711e-10
7.78287275648e-12
3.40365787977e-10
7.14241856919e-12
3.37570240703e-10
6.54587467425e-12
3.35008774267e-10
5.99134044573e-12
3.32664475572e-10
5.47757315268e-12
3.30520798948e-10
5.00409014872e-12
3.28561306469e-10
4.57129395874e-12
3.26769394804e-10
4.18061961502e-12
3.25128024297e-10
3.83469736459e-12
3.23619482094e-10
3.5375107539e-12
3.22225239574e-10
3.29450337229e-12
3.20926010139e-10
3.11253285389e-12
3.1970218488e-10
2.99945798895e-12
3.18534918308e-10
2.96290785012e-12
3.17408211415e-10
3.00727292051e-12
3.16312066972e-10
3.12689104342e-12
3.15244772452e-10
3.29158306447e-12
3.42136960377e-12
9.63931430151e-10
1.29275479247e-10
9.87644965523e-10
2.67830937058e-10
9.89666072707e-10
3.1682342129e-10
9.72080856743e-10
3.16270270351e-10
9.41834748504e-10
2.9348551823e-10
9.04973015428e-10
2.62860275146e-10
8.65689439031e-10
2.31177563254e-10
8.26630436944e-10
2.01369445654e-10
7.89351694692e-10
1.7451727027e-10
7.54691816735e-10
1.50841696276e-10
7.23036961121e-10
1.30184139551e-10
6.94497666314e-10
1.12238529023e-10
6.69023395398e-10
9.66607533854e-11
6.46475187254e-10
8.31180562544e-11
6.26670892623e-10
7.13090458478e-11
6.09412769109e-10
6.09695629305e-11
5.94503863059e-10
5.18720227436e-11
5.81757341236e-10
4.38220227878e-11
5.71001441521e-10
3.66540726236e-11
5.6208174157e-10
3.02273183046e-11
5.54861819842e-10
2.44216369682e-11
5.49222983779e-10
1.91342304428e-11
5.45063485146e-10
1.42767293181e-11
5.42297480484e-10
9.77276768344e-12
5.40853891688e-10
5.55597089093e-12
5.4067525636e-10
1.56829695841e-12
5.41716616227e-10
-2.241322501e-12
5.43944460795e-10
-5.91807778716e-12
5.47335737908e-10
-9.50216844778e-12
5.51876922096e-10
-1.3029504874e-11
5.57563123498e-10
-1.65322346618e-11
5.64397217016e-10
-2.00391117156e-11
5.72388965908e-10
-2.3575714757e-11
5.81554109484e-10
-2.71645158349e-11
5.9191337996e-10
-3.08247941187e-11
6.03491409163e-10
-3.45723857194e-11
6.16315481066e-10
-3.84192567762e-11
6.3041408208e-10
-4.23728850313e-11
6.45815197275e-10
-4.6435435431e-11
6.62544299008e-10
-5.06027190142e-11
6.80621975031e-10
-5.48629331295e-11
7.00061148694e-10
-5.9195196693e-11
7.20863855654e-10
-6.35679190286e-11
7.43017563182e-10
-6.79370766699e-11
7.66491051914e-10
-7.22445205528e-11
7.91229929674e-10
-7.64164950114e-11
8.17151913678e-10
-8.03626152144e-11
8.44142101603e-10
-8.39756104313e-11
8.72048547397e-10
-8.71321799029e-11
9.00678553936e-10
-8.9695303143e-11
9.29796171383e-10
-9.15182744504e-11
9.59121424126e-10
-9.24505786466e-11
9.88331756088e-10
-9.23455014302e-11
1.01706607422e-09
-9.10691133619e-11
1.04493159306e-09
-8.85100446339e-11
1.07151347289e-09
-8.45893301593e-11
1.09638703293e-09
-7.92695480289e-11
1.11913211474e-09
-7.25624238052e-11
1.13934893073e-09
-6.45339430208e-11
1.15667441412e-09
-5.5305830744e-11
1.17079771535e-09
-4.50522397866e-11
1.18147321602e-09
-3.39909571663e-11
1.18852948758e-09
-2.23695526829e-11
1.19187318065e-09
-1.04483936562e-11
1.19148781421e-09
1.51638618608e-12
1.18742844221e-09
1.32868504546e-11
1.17981373914e-09
2.46522430164e-11
1.16881699087e-09
3.54329598634e-11
1.15465708937e-09
4.5480614616e-11
1.13759019435e-09
5.4675634091e-11
1.11790230226e-09
6.29239059712e-11
1.09590260332e-09
7.01537690955e-11
1.07191727897e-09
7.63141716444e-11
1.04628334083e-09
8.13742326652e-11
1.01934220915e-09
8.53239177199e-11
9.91432918453e-10
8.81751899914e-11
9.62885066854e-10
8.9962842717e-11
9.34011843188e-10
9.07442648429e-11
9.0510361131e-10
9.05976388344e-11
8.7642255784e-10
8.96184620496e-11
8.48198808939e-10
8.79146983799e-11
8.20628231563e-10
8.56011701688e-11
7.93871916346e-10
8.27939104063e-11
7.6805715259e-10
7.96051148284e-11
7.43279584766e-10
7.61391289625e-11
7.19606192213e-10
7.24896630651e-11
6.97078745423e-10
6.87382170637e-11
6.75717442498e-10
6.49535538123e-11
6.55524496434e-10
6.11919869623e-11
6.36487512651e-10
5.7498235921e-11
6.18582556939e-10
5.3906624198e-11
6.01776862863e-10
5.04424400223e-11
5.86031163777e-10
4.71233254211e-11
5.71301659479e-10
4.39606035546e-11
5.57541643096e-10
4.09604899976e-11
5.44702822335e-10
3.8125160793e-11
5.32736372805e-10
3.5453669208e-11
5.21593761208e-10
3.29427155172e-11
5.11227374276e-10
3.0587281515e-11
5.01590986041e-10
2.83811451436e-11
4.92640092333e-10
2.63172919384e-11
4.84332137384e-10
2.43882396992e-11
4.76626653674e-10
2.25862917181e-11
4.69485332509e-10
2.09037322941e-11
4.62872039727e-10
1.93329766454e-11
4.5675278795e-10
1.78666856504e-11
4.51095674445e-10
1.64978544534e-11
4.45870791385e-10
1.52198826534e-11
4.410501136e-10
1.40266328471e-11
4.36607367209e-10
1.29124834308e-11
4.32517881404e-10
1.18723810333e-11
4.28758424522e-10
1.09018974358e-11
4.25307025048e-10
9.99729552601e-12
4.22142777795e-10
9.15560834087e-12
4.19245636107e-10
8.37473463722e-12
4.16596192034e-10
7.6535530549e-12
4.14175449307e-10
6.99205445558e-12
4.11964598497e-10
6.39148701854e-12
4.09944811752e-10
5.85449942726e-12
4.08097086463e-10
5.38524996921e-12
4.06402185316e-10
4.98941694424e-12
4.04840744102e-10
4.67398485752e-12
4.0339364494e-10
4.44656618686e-12
4.0204275886e-10
4.31380110519e-12
4.00772061137e-10
4.2779759604e-12
3.99568607176e-10
4.33034864274e-12
3.98420981876e-10
4.43920442541e-12
4.53300867113e-12
9.57539552317e-10
1.09235898951e-10
9.82510883921e-10
2.42859581102e-10
9.949576639e-10
3.04376616585e-10
9.92139443357e-10
3.19088465903e-10
9.77205926215e-10
3.08419010598e-10
9.54261872545e-10
2.85804304026e-10
9.26761355175e-10
2.58678055731e-10
8.97239396884e-10
2.30891378925e-10
8.67435247371e-10
2.04321394638e-10
8.38485458384e-10
1.79791460013e-10
8.11095961754e-10
1.57573610858e-10
7.85675111406e-10
1.37659354017e-10
7.62430753458e-10
1.19905085995e-10
7.41438990958e-10
1.04109793488e-10
7.22692026378e-10
9.00559852896e-11
7.06131007462e-10
7.75305569031e-11
6.91668310268e-10
6.63346952555e-11
6.79202466219e-10
5.62878424941e-11
6.68628008859e-10
4.72285060579e-11
6.59841836606e-10
3.90134671357e-11
6.52747202348e-10
3.15162483971e-11
6.47256098498e-10
2.46253121542e-11
6.43290566595e-10
1.82422398675e-11
6.40783293836e-10
1.2280019979e-11
6.3967774296e-10
6.66150229473e-12
6.39927981305e-10
1.31804023898e-12
6.41498318792e-10
-3.81167716319e-12
6.44362819907e-10
-8.78259477385e-12
6.4850474475e-10
-1.36441077619e-11
6.5391593404e-10
-1.84407071401e-11
6.60596145404e-10
-2.32124574228e-11
6.68552338234e-10
-2.79953142825e-11
6.77797894689e-10
-3.28212792243e-11
6.88351756654e-10
-3.77183840245e-11
7.0023745146e-10
-4.27104933217e-11
7.13481972949e-10
-4.78169097369e-11
7.28114478397e-10
-5.30517628681e-11
7.44164756633e-10
-5.8423162012e-11
7.61661418076e-10
-6.3932093726e-11
7.80629754741e-10
-6.95710506461e-11
8.01089217958e-10
-7.53223894597e-11
8.23050465829e-10
-8.1156435857e-11
8.46511942879e-10
-8.70293856106e-11
8.71455974495e-10
-9.28810961273e-11
8.97844391432e-10
-9.86329237486e-11
9.25613749316e-10
-1.04185837706e-10
9.54670277234e-10
-1.09419126686e-10
9.84884779748e-10
-1.14190095484e-10
1.01608782354e-09
-1.18335205533e-10
1.04806565238e-09
-1.21673113475e-10
1.08055736982e-09
-1.24009973473e-10
1.11325397848e-09
-1.25147169402e-10
1.14579983515e-09
-1.24891341142e-10
1.17779695709e-09
-1.23066219624e-10
1.20881240845e-09
-1.19525481885e-10
1.2383887567e-09
-1.1416566604e-10
1.26605736911e-09
-1.0693814993e-10
1.29135413065e-09
-9.7859176777e-11
1.31383693834e-09
-8.70167440661e-11
1.33310396719e-09
-7.45728546772e-11
1.3488112062e-09
-6.0759475084e-11
1.36068731939e-09
-4.58670670219e-11
1.36854384131e-09
-3.02260706715e-11
1.37227936634e-09
-1.41839133963e-11
1.37187768911e-09
1.91807033224e-12
1.36740121816e-09
1.77633296537e-11
1.3589816671e-09
3.30718029599e-11
1.34680982161e-09
4.76048140729e-11
1.33112560007e-09
6.11648440307e-11
1.31220908505e-09
7.35921557624e-11
1.29037272353e-09
8.47602727281e-11
1.26595447252e-09
9.45720238477e-11
1.23931140483e-09
1.02957241575e-10
1.21081325733e-09
1.09872380886e-10
1.1808355485e-09
1.15301625772e-10
1.14975212977e-09
1.19258606538e-10
1.11792731439e-09
1.21787654719e-10
1.08570799524e-09
1.22963579701e-10
1.05341634469e-09
1.2288928451e-10
1.02134371954e-09
1.21691082146e-10
9.8974626084e-10
1.19512152214e-10
9.58842434833e-10
1.16504991852e-10
9.28812490571e-10
1.12823851202e-10
8.9979958905e-10
1.0861801401e-10
8.71912226576e-10
1.04026490442e-10
8.45227534054e-10
9.91743561141e-11
8.19795061783e-10
9.41706915146e-11
7.95640726892e-10
8.91078926344e-11
7.72770681916e-10
8.40620376833e-11
7.51174941166e-10
7.90939842691e-11
7.30830667372e-10
7.42509074513e-11
7.11705071862e-10
6.95680468421e-11
6.93757917731e-10
6.50704926764e-11
6.76943639557e-10
6.07748966131e-11
6.61213107805e-10
5.66910383203e-11
6.46515073766e-10
5.28232129974e-11
6.32797333824e-10
4.91714288037e-11
6.20007651595e-10
4.57324187689e-11
6.08094474359e-10
4.25004810095e-11
5.97007476952e-10
3.94681659038e-11
5.86697962557e-10
3.66268306328e-11
5.77119145967e-10
3.39670813821e-11
5.68226341173e-10
3.14791222402e-11
5.59977071638e-10
2.91530280339e-11
5.52331118472e-10
2.69789563363e-11
5.45250518899e-10
2.49473119106e-11
5.38699525003e-10
2.30488750465e-11
5.32644530557e-10
2.1274903656e-11
5.27053972004e-10
1.96172176722e-11
5.21898208098e-10
1.80682731825e-11
5.17149381562e-10
1.66212328576e-11
5.12781265138e-10
1.52700384595e-11
5.08769093927e-10
1.40094905271e-11
5.05089385653e-10
1.28353394758e-11
5.01719750941e-10
1.17443911718e-11
4.98638696662e-10
1.07346280086e-11
4.95825427491e-10
9.80534305193e-12
4.93259653973e-10
8.95727860455e-12
4.9092142034e-10
8.19274967247e-12
4.88790971781e-10
7.51571357025e-12
4.8684868892e-10
6.93171316393e-12
4.85075123521e-10
6.447561806e-12
4.83451165136e-10
6.0705341985e-12
4.81958323373e-10
5.80665049015e-12
4.80578939036e-10
5.65736593185e-12
4.79295612745e-10
5.61367877937e-12
4.78087936703e-10
5.64687654324e-12
5.6974717275e-12
9.52920826693e-10
9.38150412339e-11
9.76449450446e-10
2.19330932009e-10
9.93732054984e-10
2.87093986633e-10
1.00005832032e-09
3.12762174784e-10
9.96059498612e-10
3.12417806647e-10
9.84146610447e-10
2.97717166457e-10
9.66862223227e-10
2.75962417049e-10
9.46338398495e-10
2.51415177562e-10
9.2420512202e-10
2.26454644819e-10
9.016474558e-10
2.02349099756e-10
8.79496485664e-10
1.79724554358e-10
8.58315475192e-10
1.58840337727e-10
8.38470862165e-10
1.39749672173e-10
8.20187457609e-10
1.2239317115e-10
8.03590114882e-10
1.06653301128e-10
7.88734642641e-10
9.23860023157e-11
7.75630466132e-10
7.9438845059e-11
7.64257081291e-10
6.76612008199e-11
7.54575896177e-10
5.69096649206e-11
7.46538673319e-10
4.70506640869e-11
7.40093483154e-10
3.79614130853e-11
7.35188844508e-10
2.95299258453e-11
7.31776550406e-10
2.16545096341e-11
7.29813544251e-10
1.42430025193e-11
7.29263112111e-10
7.2119116464e-12
7.30095583008e-10
4.85547485462e-13
7.32288672032e-10
-6.00478700094e-12
7.35827560753e-10
-1.23215031561e-11
7.40704793682e-10
-1.85213590937e-11
7.46920020205e-10
-2.46559507024e-11
7.54479609244e-10
-3.07720620364e-11
7.63396147453e-10
-3.69118665089e-11
7.73687820048e-10
-4.31129641898e-11
7.8537766352e-10
-4.94082381435e-11
7.98492670923e-10
-5.58255095785e-11
8.13062722657e-10
-6.23869684724e-11
8.29119308542e-10
-6.91083538555e-11
8.46694000505e-10
-7.59978571406e-11
8.65816629495e-10
-8.30547239187e-11
8.86513116017e-10
-9.02675363959e-11
9.08802901658e-10
-9.76121723504e-11
9.32695930771e-10
-1.05049460256e-10
9.58189139206e-10
-1.125225874e-10
9.85262423703e-10
-1.19954372101e-10
1.01387409531e-09
-1.27244585046e-10
1.04395586792e-09
-1.34267598343e-10
1.07540750338e-09