/*--------------------------------*- C++ -*----------------------------------*\
  =========                 |
  \\      /  F ield         | OpenFOAM: The Open Source CFD Toolbox
   \\    /   O peration     | Website:  https://openfoam.org
    \\  /    A nd           | Version:  7
     \\/     M anipulation  |
\*---------------------------------------------------------------------------*/
FoamFile
{
    version     2.0;
    format      ascii;
    class       volVectorField;
    location    "1920";
    object      U;
}
// * * * * * * * * * * * * * * * * * * * * * * * * * * * * * * * * * * * * * //

dimensions      [0 1 -1 0 0 0 0];

internalField   nonuniform List<vector> 
8192
(
(0.00104346828446 0.000156531712745 0)
(0.000759343773523 0.000127592792163 0)
(0.000549356879688 8.2394095776e-05 0)
(0.000414107299763 5.28554803304e-05 0)
(0.000326289132791 3.49626860737e-05 0)
(0.000267252384522 2.40740649233e-05 0)
(0.000225933269348 1.72450558354e-05 0)
(0.000195895745599 1.27924759658e-05 0)
(0.000173333162485 9.7701173417e-06 0)
(0.000155923923721 7.63913348997e-06 0)
(0.00014220023145 6.08457253004e-06 0)
(0.000131199317616 4.91635660937e-06 0)
(0.000122267194978 4.01578283247e-06 0)
(0.000114945272097 3.30615834706e-06 0)
(0.000108902833301 2.73630028841e-06 0)
(0.000103895547127 2.27100735057e-06 0)
(9.97391675685e-05 1.88539541981e-06 0)
(9.62923665748e-05 1.56143068279e-06 0)
(9.34452162858e-05 1.28574678958e-06 0)
(9.11112659118e-05 1.04823304394e-06 0)
(8.92219667954e-05 8.41098032175e-07 0)
(8.77226695553e-05 6.58233913838e-07 0)
(8.65696979253e-05 4.9477543516e-07 0)
(8.57281756436e-05 3.46787867159e-07 0)
(8.5170390301e-05 2.11042106883e-07 0)
(8.48745469054e-05 8.48498624304e-08 0)
(8.48238088315e-05 -3.40589200981e-08 0)
(8.50055534507e-05 -1.47628160648e-07 0)
(8.54107893934e-05 -2.57545177388e-07 0)
(8.60336970339e-05 -3.65294373582e-07 0)
(8.68712636385e-05 -4.7219821958e-07 0)
(8.79229898746e-05 -5.79447626144e-07 0)
(8.91906482583e-05 -6.88123518434e-07 0)
(9.06780769046e-05 -7.99210558755e-07 0)
(9.23909931883e-05 -9.13603344667e-07 0)
(9.43368120912e-05 -1.03210489161e-06 0)
(9.65244531944e-05 -1.15541680762e-06 0)
(9.89641187449e-05 -1.28412018921e-06 0)
(0.000101667023027 -1.41864604345e-06 0)
(0.000104645050765 -1.5592338943e-06 0)
(0.000107910319744 -1.70587741147e-06 0)
(0.000111474621005 -1.85825635108e-06 0)
(0.000115348709604 -2.015655195e-06 0)
(0.000119541421415 -2.17687054787e-06 0)
(0.000124058598181 -2.34011200224e-06 0)
(0.000128901815827 -2.50290451483e-06 0)
(0.000134066931193 -2.66200444915e-06 0)
(0.000139542490628 -2.8133453638e-06 0)
(0.000145308079105 -2.95203272346e-06 0)
(0.000151332727393 -3.0724071979e-06 0)
(0.000157573531114 -3.16819322028e-06 0)
(0.000163974661295 -3.23274187516e-06 0)
(0.000170466953116 -3.25936619292e-06 0)
(0.000176968243116 -3.24175429477e-06 0)
(0.000183384585283 -3.1744351438e-06 0)
(0.000189612418528 -3.05326419092e-06 0)
(0.000195541687766 -2.87589135649e-06 0)
(0.000201059838898 -2.64216697127e-06 0)
(0.000206056508289 -2.35443034451e-06 0)
(0.00021042860492 -2.01761392807e-06 0)
(0.000214085350682 -1.63909737684e-06 0)
(0.000216952742222 -1.22827520004e-06 0)
(0.000218976888202 -7.95864667253e-07 0)
(0.000220125807204 -3.53058658176e-07 0)
(0.000220389537086 8.93157636312e-08 0)
(0.000219778727595 5.21472826143e-07 0)
(0.000218322156079 9.350697245e-07 0)
(0.000216063712929 1.32333542851e-06 0)
(0.000213059341189 1.68098785594e-06 0)
(0.000209374270999 2.00402189345e-06 0)
(0.000205080714402 2.28946092986e-06 0)
(0.000200256017979 2.53514739577e-06 0)
(0.00019498114942 2.73961819339e-06 0)
(0.000189339336244 2.90207706874e-06 0)
(0.000183414681366 3.02244537075e-06 0)
(0.000177290637928 3.1014520197e-06 0)
(0.000171048313083 3.14071455927e-06 0)
(0.000164764662825 3.14276702783e-06 0)
(0.000158510713799 3.11100507714e-06 0)
(0.000152349984785 3.04954113751e-06 0)
(0.000146337272192 2.96298523879e-06 0)
(0.000140517915665 2.85618407258e-06 0)
(0.000134927588577 2.73395706066e-06 0)
(0.00012959258472 2.60086411721e-06 0)
(0.00012453051462 2.46102830088e-06 0)
(0.000119751292023 2.31802300615e-06 0)
(0.000115258283925 2.17482127178e-06 0)
(0.00011104951017 2.03379690322e-06 0)
(0.000107118803105 1.8967633286e-06 0)
(0.000103456865936 1.76503602315e-06 0)
(0.00010005219494 1.63950625084e-06 0)
(9.68918520728e-05 1.52071691361e-06 0)
(9.39620900134e-05 1.40893426905e-06 0)
(9.12488414593e-05 1.3042119486e-06 0)
(8.87380897187e-05 1.20644564925e-06 0)
(8.64161394536e-05 1.11541827447e-06 0)
(8.42698061142e-05 1.03083610901e-06 0)
(8.22865409301e-05 9.5235707245e-07 0)
(8.04545061204e-05 8.79612255154e-07 0)
(7.87626125323e-05 8.12221940041e-07 0)
(7.72005296444e-05 7.4980722502e-07 0)
(7.5758675754e-05 6.91998204464e-07 0)
(7.4428194419e-05 6.38439541777e-07 0)
(7.32009216978e-05 5.88794088778e-07 0)
(7.2069347541e-05 5.42745122328e-07 0)
(7.10265736647e-05 4.99997616954e-07 0)
(7.00662694584e-05 4.60278946027e-07 0)
(6.9182626779e-05 4.23339285209e-07 0)
(6.83703139384e-05 3.88952023699e-07 0)
(6.76244286316e-05 3.56914404019e-07 0)
(6.69404490528e-05 3.27048701911e-07 0)
(6.63141818328e-05 2.99204217716e-07 0)
(6.57417047481e-05 2.73260519018e-07 0)
(6.52193012049e-05 2.49132417793e-07 0)
(6.4743382244e-05 2.26777476726e-07 0)
(6.43103899589e-05 2.06207084312e-07 0)
(6.39166735022e-05 1.87502795532e-07 0)
(6.35583246331e-05 1.70840444892e-07 0)
(6.32309531108e-05 1.56526190512e-07 0)
(6.29293713598e-05 1.45051193339e-07 0)
(6.26471397356e-05 1.3717633963e-07 0)
(6.23758932536e-05 1.34066053119e-07 0)
(6.21043205767e-05 1.37502228241e-07 0)
(6.18165923062e-05 1.50221003852e-07 0)
(6.14899697274e-05 1.76395577971e-07 0)
(6.10915391249e-05 2.22027155913e-07 0)
(6.05758218373e-05 2.93688773923e-07 0)
(5.99053167103e-05 3.76816456499e-07 0)
(0.00121017891646 0.000302884500735 0)
(0.00116034243941 0.000315200967416 0)
(0.00102700833423 0.000238106891966 0)
(0.000887641669333 0.000171758902784 0)
(0.000767058764251 0.000124460313306 0)
(0.000668732863647 9.19390682333e-05 0)
(0.000589961103547 6.94709129532e-05 0)
(0.00052691993925 5.36452951521e-05 0)
(0.000476174990462 4.22248211402e-05 0)
(0.000434993260199 3.37753924166e-05 0)
(0.000401290676822 2.73745854363e-05 0)
(0.000373497969773 2.24199632102e-05 0)
(0.000350432386579 1.85098831561e-05 0)
(0.000331195938591 1.53704325503e-05 0)
(0.000315099939064 1.28104707891e-05 0)
(0.000301610458025 1.06936133758e-05 0)
(0.000290309168487 8.92047099463e-06 0)
(0.000280865169687 7.4171708942e-06 0)
(0.000273014557386 6.12778898779e-06 0)
(0.000266545462122 5.00926050251e-06 0)
(0.00026128696933 4.0278911053e-06 0)
(0.000257100820153 3.15692092161e-06 0)
(0.000253875125469 2.37479391079e-06 0)
(0.000251519554189 1.66390812189e-06 0)
(0.000249961613659 1.00969940921e-06 0)
(0.0002491437481 3.99960256486e-07 0)
(0.000249021055967 -1.75672745836e-07 0)
(0.000249559479074 -7.26107498494e-07 0)
(0.000250734352781 -1.25909212893e-06 0)
(0.000252529233899 -1.78144341402e-06 0)
(0.000254934941199 -2.2992202977e-06 0)
(0.000257948754369 -2.81785153395e-06 0)
(0.000261573725467 -3.34222443226e-06 0)
(0.000265818062095 -3.87673842845e-06 0)
(0.000270694543943 -4.42532472573e-06 0)
(0.00027621993462 -4.99143130087e-06 0)
(0.00028241434922 -5.57797095152e-06 0)
(0.000289300535327 -6.18722882231e-06 0)
(0.00029690302156 -6.82072506263e-06 0)
(0.000305247084109 -7.47902820907e-06 0)
(0.000314357478883 -8.16151589299e-06 0)
(0.000324256886455 -8.86608206206e-06 0)
(0.000334964020745 -9.58879466158e-06 0)
(0.000346491362909 -1.0323515228e-05 0)
(0.000358842501909 -1.10615025048e-05 0)
(0.000372009095597 -1.179103582e-05 0)
(0.000385967512769 -1.2497109514e-05 0)
(0.00040067527767 -1.31612646247e-05 0)
(0.000416067510683 -1.37616343745e-05 0)
(0.000432053634806 -1.42732804934e-05 0)
(0.000448514684834 -1.46688832961e-05 0)
(0.000465301599366 -1.49198173244e-05 0)
(0.000482234880009 -1.49975992524e-05 0)
(0.000499105957863 -1.48756441423e-05 0)
(0.000515680514697 -1.45312216784e-05 0)
(0.000531703874269 -1.39474728723e-05 0)
(0.00054690841953 -1.31153265094e-05 0)
(0.00056102280891 -1.20351296304e-05 0)
(0.000573782555012 -1.07177684737e-05 0)
(0.000584941290987 -9.18502067341e-06 0)
(0.000594281811221 -7.46889383736e-06 0)
(0.000601625807415 -5.6098258255e-06 0)
(0.000606841232787 -3.65386375344e-06 0)
(0.000609846494209 -1.6492344857e-06 0)
(0.000610611176866 3.57070481318e-07 0)
(0.000609153607073 2.32207561985e-06 0)
(0.000605536057603 4.20855264065e-06 0)
(0.000599858618888 5.98568435911e-06 0)
(0.000592252680356 7.62888269803e-06 0)
(0.000582874718817 9.11907402765e-06 0)
(0.000571900773916 1.04418058241e-05 0)
(0.000559521679555 1.15864681328e-05 0)
(0.000545938885967 1.25458133828e-05 0)
(0.000531360586004 1.33158279385e-05 0)
(0.000515997857511 1.3895890742e-05 0)
(0.000500060629144 1.42890726897e-05 0)
(0.000483753430696 1.45023947782e-05 0)
(0.000467271055407 1.45468758277e-05 0)
(0.000450794396244 1.44372567471e-05 0)
(0.000434486785762 1.41913732556e-05 0)
(0.000418491153805 1.38292372832e-05 0)
(0.000402928227862 1.33719526915e-05 0)
(0.000387895866714 1.28406165163e-05 0)
(0.000373469477207 1.22553422725e-05 0)
(0.000359703349272 1.16344992406e-05 0)
(0.000346632674428 1.09942093795e-05 0)
(0.000334275991002 1.03480967098e-05 0)
(0.000322637816341 9.70725179963e-06 0)
(0.000311711268325 9.08035793487e-06 0)
(0.000301480531172 8.47392321951e-06 0)
(0.000291923072821 7.89256923948e-06 0)
(0.000283011566157 7.33933772062e-06 0)
(0.000274715501155 6.81598810618e-06 0)
(0.000267002499108 6.32326935438e-06 0)
(0.00025983935507 5.86115734823e-06 0)
(0.000253192842261 5.42905519413e-06 0)
(0.000247030314591 5.02595742913e-06 0)
(0.00024132014247 4.65058138796e-06 0)
(0.000236032014051 4.30146998332e-06 0)
(0.000231137130043 3.9770704669e-06 0)
(0.00022660831595 3.67579353441e-06 0)
(0.00022242007139 3.39605674197e-06 0)
(0.000218548572357 3.1363156649e-06 0)
(0.000214971638877 2.89508571631e-06 0)
(0.000211668677665 2.67095704832e-06 0)
(0.0002086206069 2.46260454713e-06 0)
(0.000205809768187 2.26879459724e-06 0)
(0.000203219829011 2.08839003556e-06 0)
(0.000200835677459 1.92035455919e-06 0)
(0.000198643309598 1.76375776133e-06 0)
(0.000196629708589 1.61778199981e-06 0)
(0.000194782713266 1.48173240193e-06 0)
(0.000193090872479 1.35505157262e-06 0)
(0.000191543279804 1.23734094691e-06 0)
(0.000190129381301 1.12839136591e-06 0)
(0.000188838746599 1.02822633172e-06 0)
(0.000187660790804 9.37162760851e-07 0)
(0.000186584431585 8.55895960037e-07 0)
(0.000185597662858 7.85618373269e-07 0)
(0.000184687025305 7.28185435355e-07 0)
(0.000183836958944 6.86346484787e-07 0)
(0.000183029045065 6.64061542083e-07 0)
(0.00018224121261 6.66915576665e-07 0)
(0.000181447169054 7.02581123929e-07 0)
(0.000180616806258 7.81019770503e-07 0)
(0.000179719562724 9.13072363246e-07 0)
(0.000178736408674 1.10151474065e-06 0)
(0.00017768444275 1.29145164084e-06 0)
(0.00122478118641 0.000267924378845 0)
(0.00124107444883 0.000383704262043 0)
(0.00119614446226 0.000347867641695 0)
(0.00111333027464 0.000284178956724 0)
(0.0010202535816 0.000225699809464 0)
(0.000930617019367 0.000178661987956 0)
(0.000849852844752 0.000142283881787 0)
(0.000779356951127 0.00011436933888 0)
(0.000718762327633 9.28403052376e-05 0)
(0.000667044731806 7.6059190992e-05 0)
(0.000623026741874 6.28113179465e-05 0)
(0.000585589130796 5.22135079722e-05 0)
(0.000553745866768 4.36251463184e-05 0)
(0.0005266587494 3.65786972108e-05 0)
(0.000503627558852 3.07293606539e-05 0)
(0.000484072083376 2.58196466991e-05 0)
(0.000467513107137 2.16546726005e-05 0)
(0.000453555126479 1.80849206489e-05 0)
(0.000441871626048 1.49941269087e-05 0)
(0.000432192927465 1.22906947187e-05 0)
(0.000424296318305 9.90154079658e-06 0)
(0.000417998091305 7.76763336309e-06 0)
(0.00041314713914 5.84071861755e-06 0)
(0.000409619797962 4.08089086842e-06 0)
(0.000407315686559 2.4547686395e-06 0)
(0.000406154337085 9.34111506528e-07 0)
(0.000406072454386 -5.05237966494e-07 0)
(0.000407021672992 -1.8841667068e-06 0)
(0.000408966706581 -3.22091652645e-06 0)
(0.000411883806128 -4.5315692918e-06 0)
(0.000415759456066 -5.83041430374e-06 0)
(0.000420589246295 -7.13021638567e-06 0)
(0.000426376865162 -8.44239763795e-06 0)
(0.000433133162311 -9.77713959958e-06 0)
(0.000440875231657 -1.11434077903e-05 0)
(0.000449625464031 -1.25488967707e-05 0)
(0.000459410516762 -1.39998908129e-05 0)
(0.000470260144078 -1.55010330479e-05 0)
(0.000482205828354 -1.70549949089e-05 0)
(0.000495279148932 -1.8662038268e-05 0)
(0.000509509823667 -2.0319465745e-05 0)
(0.000524923360506 -2.2020961143e-05 0)
(0.000541538264538 -2.37558331389e-05 0)
(0.000559362763114 -2.55081921301e-05 0)
(0.000578391040989 -2.72561133107e-05 0)
(0.000598599022176 -2.89708678135e-05 0)
(0.000619939797321 -3.06163358598e-05 0)
(0.000642338874558 -3.21487456516e-05 0)
(0.000665689523684 -3.35169011543e-05 0)
(0.00068984857841 -3.46630599704e-05 0)
(0.000714633143716 -3.55245896674e-05 0)
(0.000739818705456 -3.60364622253e-05 0)
(0.000765139137689 -3.61345480516e-05 0)
(0.000790289037445 -3.57595608342e-05 0)
(0.000814928686807 -3.48614072094e-05 0)
(0.00083869176175 -3.34036269297e-05 0)
(0.000861195694199 -3.1367564983e-05 0)
(0.000882054358335 -2.87558697237e-05 0)
(0.00090089248948 -2.5594841144e-05 0)
(0.000917360949166 -2.19350895707e-05 0)
(0.000931151651462 -1.78500033497e-05 0)
(0.000942010752487 -1.34317786512e-05 0)
(0.000949748711843 -8.78526910975e-06 0)
(0.000954246171003 -4.0205306696e-06 0)
(0.000955455245705 7.5462132008e-07 0)
(0.000953396613658 5.44073161744e-06 0)
(0.000948153423584 9.95063375885e-06 0)
(0.00093986333079 1.42111242184e-05 0)
(0.000928709863343 1.81628294551e-05 0)
(0.000914914011313 2.17589120874e-05 0)
(0.000898726540948 2.49633446106e-05 0)
(0.000880421153781 2.77493627818e-05 0)
(0.000860288320125 3.00984884449e-05 0)
(0.000838629464056 3.20002423491e-05 0)
(0.000815751172281 3.34524215859e-05 0)
(0.00079195921459 3.44616451724e-05 0)
(0.000767552350583 3.50437951997e-05 0)
(0.000742816100952 3.52240050094e-05 0)
(0.000718016826823 3.50359609602e-05 0)
(0.000693396542483 3.45204606537e-05 0)
(0.000669168864192 3.37233549127e-05 0)
(0.00064551638119 3.26931380714e-05 0)
(0.000622589562377 3.14785056886e-05 0)
(0.000600507131771 3.01261694876e-05 0)
(0.000579357699209 2.86791315463e-05 0)
(0.000559202342833 2.71755110161e-05 0)
(0.000540077810204 2.56479183921e-05 0)
(0.000522000024126 2.41233033848e-05 0)
(0.000504967630236 2.26231666633e-05 0)
(0.000488965388319 2.11640183436e-05 0)
(0.000473967274913 1.9757977424e-05 0)
(0.000459939222256 1.84134274597e-05 0)
(0.000446841464241 1.71356672232e-05 0)
(0.000434630492956 1.59275167311e-05 0)
(0.000423260650949 1.47898564994e-05 0)
(0.000412685396639 1.37220908768e-05 0)
(0.000402858285796 1.27225350446e-05 0)
(0.000393733712638 1.17887306729e-05 0)
(0.000385267451848 1.09176980765e-05 0)
(0.000377417038746 1.01061338575e-05 0)
(0.000370142020113 9.35056306612e-06 0)
(0.00036340410318 8.64745430159e-06 0)
(0.000357167225582 7.99330529403e-06 0)
(0.00035139756473 7.38470547366e-06 0)
(0.000346063501214 6.81838109625e-06 0)
(0.000341135547515 6.29122758194e-06 0)
(0.000336586250425 5.80033304646e-06 0)
(0.000332390073071 5.34299638108e-06 0)
(0.000328523260322 4.9167428948e-06 0)
(0.000324963689414 4.51934022953e-06 0)
(0.000321690705941 4.1488172606e-06 0)
(0.000318684943703 3.80348872434e-06 0)
(0.000315928125446 3.4819886807e-06 0)
(0.000313402839991 3.18331631682e-06 0)
(0.000311092290052 2.90689836786e-06 0)
(0.000308980004019 2.65267321225e-06 0)
(0.000307049504942 2.42120277145e-06 0)
(0.000305283931583 2.21381908542e-06 0)
(0.000303665611804 2.03281254104e-06 0)
(0.000302175601298 1.88166604401e-06 0)
(0.000300793228063 1.76532984772e-06 0)
(0.000299495738566 1.69050333924e-06 0)
(0.000298258250824 1.66581293209e-06 0)
(0.000297054427791 1.70156621134e-06 0)
(0.000295858654327 1.80818317086e-06 0)
(0.000294651094474 1.99072075586e-06 0)
(0.000293426741003 2.23137331799e-06 0)
(0.000292202212618 2.43805772091e-06 0)
(0.00122191914011 0.000221224028499 0)
(0.00125334587634 0.000382684563859 0)
(0.00125094779038 0.00039621535888 0)
(0.00121315917833 0.000356433984295 0)
(0.0011550051792 0.000304675419646 0)
(0.0010888919989 0.000255436066551 0)
(0.00102229573197 0.000212870191256 0)
(0.000959179383149 0.000177395218605 0)
(0.000901370104782 0.00014821827442 0)
(0.000849489559046 0.000124279310843 0)
(0.000803518633337 0.000104580061787 0)
(0.000763123531115 8.82774262371e-05 0)
(0.000727837563299 7.46904096447e-05 0)
(0.000697158924913 6.32791405296e-05 0)
(0.000670600739553 5.36182454803e-05 0)
(0.000647714554485 4.53723762194e-05 0)
(0.00062809942365 3.8276005749e-05 0)
(0.000611403434666 3.21175147624e-05 0)
(0.000597321499094 2.6726928692e-05 0)
(0.000585591497155 2.19665558809e-05 0)
(0.00057598989332 1.7723857845e-05 0)
(0.000568327394359 1.39060105574e-05 0)
(0.000562444920625 1.04357389465e-05 0)
(0.000558209998176 7.2481094145e-06 0)
(0.000555513593239 4.28804558142e-06 0)
(0.000554267367169 1.50839343089e-06 0)
(0.000554401309979 -1.13159224288e-06 0)
(0.000555861700986 -3.66742959837e-06 0)
(0.000558609345127 -6.13033400646e-06 0)
(0.000562618036771 -8.54794052879e-06 0)
(0.000567873201182 -1.09448496551e-05 0)
(0.000574370664511 -1.33430214129e-05 0)
(0.000582115505061 -1.57620333391e-05 0)
(0.000591120937889 -1.82192096351e-05 0)
(0.000601407182977 -2.07296224062e-05 0)
(0.000613000264324 -2.33059606116e-05 0)
(0.000625930683516 -2.59582582702e-05 0)
(0.000640231907087 -2.8693470661e-05 0)
(0.000655938602774 -3.151488648e-05 0)
(0.000673084556753 -3.44213657889e-05 0)
(0.000691700203296 -3.74063996802e-05 0)
(0.000711809702149 -4.045699909e-05 0)
(0.000733427509612 -4.35524393033e-05 0)
(0.000756554410104 -4.66629145349e-05 0)
(0.000781173009283 -4.97481948461e-05 0)
(0.000807242740961 -5.27564239659e-05 0)
(0.000834694510536 -5.5623247798e-05 0)
(0.000863425187279 -5.82715102862e-05 0)
(0.000893292262161 -6.06117830933e-05 0)
(0.000924109096372 -6.25439903189e-05 0)
(0.000955641280448 -6.3960333701e-05 0)
(0.000987604681537 -6.47496085478e-05 0)
(0.00101966575264 -6.48028359663e-05 0)
(0.0010514445965 -6.4019951571e-05 0)
(0.00108252111863 -6.23171277726e-05 0)
(0.00111244438811 -5.96341958851e-05 0)
(0.00114074507923 -5.59415703263e-05 0)
(0.00116695060695 -5.12460128424e-05 0)
(0.00119060228521 -4.55944699464e-05 0)
(0.00121127350616 -3.90751096314e-05 0)
(0.00122858757842 -3.18147312136e-05 0)
(0.00124223357238 -2.39721233999e-05 0)
(0.00125197848108 -1.57277731942e-05 0)
(0.00125767437927 -7.27136688109e-06 0)
(0.00125926006244 1.21071504754e-06 0)
(0.00125675763555 9.54571044841e-06 0)
(0.00125026531999 1.7581171769e-05 0)
(0.00123994806038 2.51879464064e-05 0)
(0.00122602735104 3.22601874046e-05 0)
(0.00120877130503 3.87134502878e-05 0)
(0.00118848552721 4.44820469908e-05 0)
(0.00116550491485 4.9516646429e-05 0)
(0.00114018617782 5.37827561271e-05 0)
(0.00111290070182 5.72602816753e-05 0)
(0.00108402738332 5.99439620504e-05 0)
(0.00105394520639 6.18442038052e-05 0)
(0.00102302555302 6.29877139105e-05 0)
(0.000991624477224 6.34173678539e-05 0)
(0.000960075367034 6.3190935506e-05 0)
(0.000928682512337 6.23785760263e-05 0)
(0.00089771606322 6.10593165434e-05 0)
(0.000867408717234 5.93169546337e-05 0)
(0.000837954262307 5.72359125382e-05 0)
(0.000809507885667 5.48975208143e-05 0)
(0.000782187987564 5.23770637979e-05 0)
(0.000756079137273 4.97417409745e-05 0)
(0.000731235778909 4.70495381764e-05 0)
(0.000707686320776 4.43488902666e-05 0)
(0.000685437302696 4.16789583455e-05 0)
(0.000664477410881 3.90703314882e-05 0)
(0.000644781184383 3.65459800723e-05 0)
(0.000626312322072 3.41223206851e-05 0)
(0.000609026550471 3.18102896901e-05 0)
(0.000592874050211 2.96163571398e-05 0)
(0.000577801463839 2.75434410729e-05 0)
(0.000563753522626 2.55917036494e-05 0)
(0.00055067433732 2.37592253544e-05 0)
(0.000538508399778 2.20425629332e-05 0)
(0.000527201340922 2.04372020498e-05 0)
(0.000516700486838 1.89379181049e-05 0)
(0.000506955250218 1.75390592469e-05 0)
(0.000497917389255 1.62347649916e-05 0)
(0.000489541161123 1.50191327402e-05 0)
(0.000481783392484 1.38863429712e-05 0)
(0.000474603485198 1.28307524997e-05 0)
(0.000467963371667 1.1846963744e-05 0)
(0.000461827430936 1.09298768665e-05 0)
(0.00045616237384 1.00747305865e-05 0)
(0.000450937103005 9.27713685764e-06 0)
(0.000446122551398 8.53311397357e-06 0)
(0.000441691501274 7.83912252684e-06 0)
(0.000437618383801 7.19210842441e-06 0)
(0.000433879058356 6.58955741862e-06 0)
(0.000430450569581 6.02956567297e-06 0)
(0.000427310879897 5.5109312964e-06 0)
(0.000424438575693 5.03327166002e-06 0)
(0.000421812547467 4.59717093973e-06 0)
(0.000419411648815 4.20436012389e-06 0)
(0.000417214348225 3.85792667162e-06 0)
(0.00041519840409 3.56253868449e-06 0)
(0.000413340621868 3.32464186083e-06 0)
(0.000411616799817 3.15252887677e-06 0)
(0.000410002044812 3.0560526966e-06 0)
(0.00040847174604 3.04546711534e-06 0)
(0.000407003603023 3.12821364746e-06 0)
(0.000405580978168 3.30088581631e-06 0)
(0.000404196377232 3.53016051252e-06 0)
(0.000402847038299 3.71309908299e-06 0)
(0.0012169161153 0.000182388744361 0)
(0.00124900889323 0.000358000276786 0)
(0.00126547906447 0.000406827503001 0)
(0.00125551803485 0.000393571423049 0)
(0.00122490598736 0.000356303969081 0)
(0.00118195696892 0.000312869657998 0)
(0.00113322397085 0.000270765807069 0)
(0.00108308472062 0.00023275514413 0)
(0.00103422856425 0.000199523725954 0)
(0.000988187847313 0.000170895064394 0)
(0.000945746417828 0.00014637660606 0)
(0.000907222161559 0.000125400183441 0)
(0.000872653479496 0.000107422245817 0)
(0.000841919092898 9.19602735249e-05 0)
(0.000814813491122 7.86008446698e-05 0)
(0.000791093543509 6.69958558211e-05 0)
(0.000770506644587 5.68545032792e-05 0)
(0.000752807170748 4.79344289092e-05 0)
(0.000737765620964 4.00334504606e-05 0)
(0.000725173237178 3.29823723357e-05 0)
(0.000714843879303 2.66389577812e-05 0)
(0.000706614274317 2.08829716855e-05 0)
(0.000700343340112 1.56121455681e-05 0)
(0.000695911018003 1.07389101182e-05 0)
(0.00069321687819 6.18775561444e-06 0)
(0.000692178654751 1.89310237179e-06 0)
(0.000692730798456 -2.20241450276e-06 0)
(0.000694823089295 -6.1493120132e-06 0)
(0.00069841932717 -9.99235223814e-06 0)
(0.000703496102403 -1.37714033968e-05 0)
(0.00071004162918 -1.75220876131e-05 0)
(0.000718054617929 -2.1276240433e-05 0)
(0.000727543157071 -2.50621940595e-05 0)
(0.000738523568251 -2.89048880395e-05 0)
(0.000751019193244 -3.2825804233e-05 0)
(0.000765059065039 -3.68427171107e-05 0)
(0.000780676409747 -4.09692459379e-05 0)
(0.000797906920414 -4.52141926662e-05 0)
(0.000816786738787 -4.95806492661e-05 0)
(0.000837350077621 -5.40648620048e-05 0)
(0.000859626415385 -5.86548496196e-05 0)
(0.000883637199184 -6.33287895415e-05 0)
(0.000909392002783 -6.80532138093e-05 0)
(0.000936884108055 -7.27810961536e-05 0)
(0.000966085513661 -7.74499651917e-05 0)
(0.000996941428216 -8.19802442649e-05 0)
(0.00102936437974 -8.62740907402e-05 0)
(0.00106322816978 -9.02150745716e-05 0)
(0.00109836201536 -9.36690787279e-05 0)
(0.00113454534485 -9.64867976556e-05 0)
(0.0011715038242 -9.85081297577e-05 0)
(0.00120890726113 -9.95685921056e-05 0)
(0.00124637003534 -9.95076418896e-05 0)
(0.0012834546114 -9.8178513136e-05 0)
(0.00131967850706 -9.54589356635e-05 0)
(0.00135452484221 -9.12619489387e-05 0)
(0.00138745632372 -8.55459512347e-05 0)
(0.0014179322545 -7.83230570132e-05 0)
(0.0014454278691 -6.96646904648e-05 0)
(0.00146945494071 -5.97031584822e-05 0)
(0.00148958216286 -4.86279577878e-05 0)
(0.00150545339608 -3.66761079606e-05 0)
(0.00151680173031 -2.41170168877e-05 0)
(0.00152345770767 -1.1233983979e-05 0)
(0.00152535103671 1.69433560424e-06 0)
(0.0015225064041 1.44091659156e-05 0)
(0.00151503499606 2.66814564568e-05 0)
(0.00150312366721 3.83162654312e-05 0)
(0.00148702341135 4.91528461459e-05 0)
(0.00146703826158 5.90619961529e-05 0)
(0.00144351519783 6.7942347096e-05 0)
(0.00141683513957 7.57170166055e-05 0)
(0.00138740472467 8.23315327241e-05 0)
(0.00135564839667 8.77532991017e-05 0)
(0.00132200035199 9.19722931765e-05 0)
(0.00128689608167 9.50023008974e-05 0)
(0.0012507635106 9.68818182686e-05 0)
(0.00121401402243 9.76738011438e-05 0)
(0.00117703389088 9.74637150697e-05 0)
(0.00114017674826 9.63557632024e-05 0)
(0.00110375767474 9.44676206383e-05 0)
(0.00106804930592 9.19243340893e-05 0)
(0.00103328009466 8.88521689653e-05 0)
(0.000999634604119 8.53731029722e-05 0)
(0.000967255511908 8.16004457273e-05 0)
(0.000936246897267 7.76358006934e-05 0)
(0.000906678360087 7.35673541431e-05 0)
(0.000878589560269 6.94693162181e-05 0)
(0.000851994840917 6.54022579444e-05 0)
(0.000826887685815 6.14140713304e-05 0)
(0.000803244844538 5.75413051237e-05 0)
(0.000781030028673 5.38106756467e-05 0)
(0.00076019713705 5.02406045735e-05 0)
(0.000740693006884 4.68426840895e-05 0)
(0.000722459713648 4.36230098709e-05 0)
(0.000705436457876 4.05833525998e-05 0)
(0.00068956108489 3.7722159923e-05 0)
(0.000674771285768 3.50353945067e-05 0)
(0.00066100552671 3.25172218711e-05 0)
(0.000648203750603 3.01605656662e-05 0)
(0.000636307890159 2.79575493307e-05 0)
(0.000625262227019 2.5899842635e-05 0)
(0.000615013626277 2.39789302689e-05 0)
(0.000605511671157 2.21863177933e-05 0)
(0.000596708718231 2.05136883825e-05 0)
(0.000588559889714 1.89530219085e-05 0)
(0.000581023015933 1.74966863215e-05 0)
(0.000574058538131 1.61375098539e-05 0)
(0.000567629379191 1.48688415205e-05 0)
(0.000561700787718 1.3684606497e-05 0)
(0.000556240159112 1.25793624255e-05 0)
(0.000551216835793 1.15483622432e-05 0)
(0.000546601887725 1.05876289282e-05 0)
(0.00054236787382 9.69404722343e-06 0)
(0.000538488584897 8.86547698553e-06 0)
(0.00053493877001 8.10089165032e-06 0)
(0.000531693850458 7.40054298517e-06 0)
(0.000528729630594 6.76614824548e-06 0)
(0.000526022022559 6.20108594678e-06 0)
(0.000523546814858 5.71056686279e-06 0)
(0.000521279533939 5.30170900258e-06 0)
(0.000519195474828 4.9833713353e-06 0)
(0.000517270008987 4.76545547252e-06 0)
(0.000515479298432 4.6570937314e-06 0)
(0.000513801484798 4.66255928378e-06 0)
(0.00051221802772 4.77263339914e-06 0)
(0.000510713336993 4.94770399353e-06 0)
(0.00050926739044 5.09080209594e-06 0)
(0.00121282531348 0.000152647282047 0)
(0.00124163227919 0.000326841931623 0)
(0.00126557987061 0.00039756802424 0)
(0.00127174214864 0.000406629591202 0)
(0.00126038103653 0.00038521889845 0)
(0.00123613939121 0.00035114533067 0)
(0.00120385486574 0.00031350759615 0)
(0.00116736048132 0.000276646927731 0)
(0.00112939177232 0.000242456745541 0)
(0.00109178925168 0.000211605220025 0)
(0.00105573210889 0.000184164960262 0)
(0.00102193348682 0.000159934645146 0)
(0.000990787753513 0.000138602137204 0)
(0.000962476636426 0.000119825823835 0)
(0.000937043851095 0.000103273619928 0)
(0.000914446741658 8.86400766935e-05 0)
(0.000894591563347 7.56522995194e-05 0)
(0.000877357296952 6.40703137804e-05 0)
(0.00086261150405 5.36848503561e-05 0)
(0.000850220701098 4.43141026818e-05 0)
(0.000840056984931 3.58002466338e-05 0)
(0.000832002112542 2.80061072621e-05 0)
(0.000825949865659 2.08121402788e-05 0)
(0.000821807270676 1.4113784104e-05 0)
(0.00081949506355 7.81918283882e-06 0)
(0.00081894766353 1.84725580633e-06 0)
(0.000820112832062 -3.87391978508e-06 0)
(0.000822951128767 -9.40843043905e-06 0)
(0.000827435241381 -1.48136167742e-05 0)
(0.000833549234426 -2.0140935689e-05 0)
(0.000841287730844 -2.54366029342e-05 0)
(0.000850655029528 -3.07420326388e-05 0)
(0.000861664149071 -3.6094076148e-05 0)
(0.000874335776859 -4.152505591e-05 0)
(0.000888697093193 -4.70625839618e-05 0)
(0.000904780431622 -5.27291490921e-05 0)
(0.000922621728861 -5.85414525724e-05 0)
(0.000942258710419 -6.45094701077e-05 0)
(0.000963728751814 -7.06352186605e-05 0)
(0.000987066350603 -7.69112125826e-05 0)
(0.00101230014253 -8.33186064571e-05 0)
(0.00103944939762 -8.9825044832e-05 0)
(0.00106851994157 -9.63822749691e-05 0)
(0.00109949946712 -0.00010292363059 0)
(0.00113235223419 -0.000109361564353 0)
(0.00116701321008 -0.000115585492939 0)
(0.00120338177699 -0.000121460314816 0)
(0.00124131523647 -0.000126826051786 0)
(0.00128062246611 -0.000131499126679 0)
(0.00132105822459 -0.000135275786635 0)
(0.00136231873421 -0.000137938078671 0)
(0.00140403926291 -0.000139262558751 0)
(0.00144579444072 -0.000139031579246 0)
(0.00148710194703 -0.000137046613111 0)
(0.00152742999394 -0.000133142736972 0)
(0.0015662087457 -0.000127203197568 0)
(0.00160284552052 -0.000119172926694 0)
(0.00163674335984 -0.000109069824373 0)
(0.00166732228415 -9.69924397356e-05 0)
(0.00169404217954 -8.31223586696e-05 0)
(0.00171642571097 -6.77194975172e-05 0)
(0.00173407905638 -5.11091354804e-05 0)
(0.00174670794285 -3.36611989468e-05 0)
(0.0017541268529 -1.57646765136e-05 0)
(0.00175626051549 2.19805217173e-06 0)
(0.00175313850066 1.98721152693e-05 0)
(0.00174488504657 3.69433894248e-05 0)
(0.00173170655277 5.31441753192e-05 0)
(0.00171387866987 6.82530935339e-05 0)
(0.00169173419848 8.20913855062e-05 0)
(0.00166565235749 9.45178743675e-05 0)
(0.00163604940547 0.000105424507484 0)
(0.00160337016151 0.00011473370446 0)
(0.00156807978378 0.000122397832673 0)
(0.00153065523573 0.000128400347835 0)
(0.00149157611409 0.000132757629779 0)
(0.00145131484427 0.000135520318359 0)
(0.00141032659816 0.000136773020508 0)
(0.00136903957756 0.00013663163094 0)
(0.00132784644111 0.000135238108285 0)
(0.00128709758744 0.00013275318438 0)
(0.00124709676523 0.000129347943693 0)
(0.00120809915226 0.000125195367429 0)
(0.00117031173096 0.000120462802457 0)
(0.001133895562 0.000115305996419 0)
(0.0010989694468 0.000109864972275 0)
(0.00106561446134 0.00010426170149 0)
(0.00103387890475 9.85993257259e-05 0)
(0.00100378330164 9.29625757732e-05 0)
(0.000975325198772 8.74190209217e-05 0)
(0.000948483589464 8.20208202555e-05 0)
(0.00092322287311 7.68067115932e-05 0)
(0.000899496313339 7.18040435824e-05 0)
(0.000877248996664 6.70307201073e-05 0)
(0.000856420318312 6.24969781234e-05 0)