/*--------------------------------*- C++ -*----------------------------------*\
  =========                 |
  \\      /  F ield         | OpenFOAM: The Open Source CFD Toolbox
   \\    /   O peration     | Website:  https://openfoam.org
    \\  /    A nd           | Version:  7
     \\/     M anipulation  |
\*---------------------------------------------------------------------------*/
FoamFile
{
    version     2.0;
    format      ascii;
    class       volScalarField;
    location    "2820";
    object      Ci;
}
// * * * * * * * * * * * * * * * * * * * * * * * * * * * * * * * * * * * * * //

dimensions      [0 -3 0 0 1 0 0];

internalField   nonuniform List<scalar> 
8192
(
10.0000000324
9.99999999625
9.99999996387
9.99999991115
9.99999980493
9.99999967437
9.99999956017
9.99999947142
9.99999940911
9.99999936983
9.99999934713
9.99999933411
9.99999932304
9.99999930711
9.99999927914
9.99999923316
9.99999916283
9.99999906329
9.9999989304
9.9999987664
9.99999856582
9.99999832073
9.99999802119
9.99999765806
9.99999722154
9.99999670321
9.99999609443
9.99999538819
9.99999457761
9.99999365763
9.99999262378
9.99999147355
9.99999020551
9.9999888204
9.9999873206
9.99998571101
9.99998399965
9.99998220049
9.9999803309
9.9999784084
9.99997645337
9.99997448866
9.99997254087
9.99997063866
9.99996881425
9.99996710083
9.99996553446
9.99996415052
9.99996298581
9.99996207395
9.99996144745
9.99996113224
9.99996115001
9.99996151255
9.99996222546
9.99996328345
9.99996467643
9.99996638628
9.99996839446
9.99997067845
9.99997321781
9.99997598718
9.99997895917
9.9999820953
9.99998535061
9.99998866915
9.99999199512
9.99999527449
9.99999846783
10.0000015482
10.0000045075
10.0000073473
10.000010079
10.0000127126
10.0000152566
10.00001771
10.0000200664
10.0000223097
10.0000244215
10.0000263792
10.0000281633
10.0000297549
10.0000311414
10.0000323133
10.0000332677
10.0000340041
10.0000345276
10.0000348446
10.0000349644
10.0000348964
10.0000346496
10.0000342241
10.0000336286
10.0000328782
10.0000319904
10.0000309834
10.0000298749
10.0000286825
10.0000274227
10.0000261118
10.0000247644
10.0000233952
10.000022017
10.0000206425
10.0000192824
10.0000179476
10.0000166466
10.0000153887
10.0000141803
10.000013029
10.0000119397
10.0000109183
10.0000099684
10.0000090948
10.0000082999
10.0000075878
10.0000069603
10.0000064212
10.0000059722
10.0000056172
10.0000053583
10.0000051995
10.0000051423
10.0000051882
10.0000053297
10.000005542
10.0000056859
10.0000062173
10.0000000258
10.0000000517
10.0000001183
10.0000002009
10.0000002855
10.0000003633
10.0000004357
10.0000005047
10.0000005712
10.0000006362
10.0000006987
10.0000007576
10.0000008104
10.0000008543
10.0000008861
10.0000009025
10.0000008994
10.0000008737
10.0000008211
10.0000007564
10.0000006683
10.0000005463
10.0000003805
10.0000001624
9.99999988354
9.99999953667
9.99999911454
9.9999986113
9.99999802153
9.99999734135
9.99999656777
9.99999569951
9.99999473659
9.99999368087
9.99999253588
9.99999130712
9.99999000216
9.99998863941
9.99998723811
9.99998581192
9.99998437864
9.99998295794
9.99998157187
9.99998024262
9.99997899362
9.99997784686
9.99997682449
9.99997594581
9.99997522933
9.99997468942
9.99997433884
9.99997418505
9.99997423317
9.9999744822
9.9999749286
9.99997556289
9.9999763743
9.99997734795
9.9999784706
9.99997972786
9.99998110975
9.99998260645
9.99998421194
9.99998591746
9.99998771433
9.99998958776
9.99999152114
9.99999349389
9.99999548843
9.99999748814
9.99999948335
10.0000014673
10.0000034395
10.0000053995
10.0000073489
10.000009285
10.0000112034
10.0000130932
10.0000149411
10.0000167286
10.0000184369
10.0000200449
10.0000215341
10.0000228863
10.0000240878
10.0000251267
10.0000259959
10.0000266904
10.0000272094
10.0000275538
10.0000277273
10.0000277077
10.0000275052
10.0000271382
10.0000266236
10.0000259778
10.000025217
10.0000243576
10.0000234154
10.0000224062
10.0000213446
10.0000202453
10.0000191214
10.0000179861
10.0000168506
10.0000157261
10.0000146222
10.0000135483
10.0000125119
10.0000115208
10.0000105806
10.0000096977
10.0000088763
10.0000081213
10.0000074357
10.0000068233
10.0000062864
10.0000058281
10.0000054501
10.0000051552
10.0000049447
10.0000048212
10.0000047857
10.0000048404
10.0000049866
10.0000052118
10.0000055891
10.0000063608
10.0000000336
10.0000000884
10.000000198
10.0000003349
10.0000004805
10.0000006397
10.0000008138
10.0000009992
10.0000011919
10.0000013887
10.0000015864
10.0000017819
10.0000019721
10.0000021541
10.0000023245
10.0000024806
10.0000026186
10.0000027357
10.0000028275
10.0000028955
10.0000029374
10.0000029493
10.0000029257
10.0000028614
10.0000027504
10.0000025879
10.0000023686
10.0000020888
10.0000017448
10.0000013348
10.0000008573
10.0000003129
9.99999970303
9.99999903105
9.99999830172
9.99999752139
9.99999669781
9.99999584204
9.9999949686
9.99999409122
9.99999322467
9.99999238271
9.99999158003
9.99999082924
9.99999014342
9.99998953244
9.99998900626
9.99998857078
9.99998823191
9.99998799094
9.99998784943
9.99998780411
9.99998785243
9.999987987
9.99998820187
9.99998848665
9.99998883351
9.99998923124
9.99998967299
9.99999015027
9.99999066081
9.9999912018
9.99999177684
9.99999238755
9.99999303977
9.99999373487
9.99999447606
9.99999526177
9.99999609348
9.99999696903
9.99999789007
9.99999885521
9.99999986647
10.0000009224
10.0000020236
10.0000031662
10.0000043475
10.0000055592
10.0000067934
10.0000080375
10.0000092792
10.0000105024
10.0000116925
10.0000128329
10.0000139092
10.0000149067
10.0000158136
10.0000166189
10.0000173147
10.0000178943
10.0000183551
10.0000186879
10.0000188882
10.0000189572
10.0000188996
10.0000187231
10.0000184365
10.0000180506
10.000017576
10.0000170249
10.0000164084
10.0000157391
10.0000150278
10.0000142864
10.000013525
10.0000127545
10.0000119837
10.0000112223
10.0000104776
10.000009758
10.0000090693
10.0000084185
10.0000078101
10.0000072496
10.0000067404
10.0000062869
10.0000058915
10.0000055577
10.0000052871
10.0000050828
10.0000049455
10.0000048778
10.0000048801
10.000004954
10.0000051023
10.0000053093
10.0000057369
10.0000065884
10.0000000505
10.0000001176
10.0000002447
10.0000004009
10.0000005653
10.0000007384
10.0000009221
10.0000011231
10.0000013384
10.0000015649
10.0000017999
10.0000020405
10.0000022838
10.0000025268
10.0000027659
10.000002998
10.0000032195
10.0000034268
10.0000036159
10.0000037841
10.0000039283
10.0000040456
10.0000041321
10.0000041843
10.0000041985
10.0000041714
10.0000040998
10.0000039814
10.0000038145
10.0000035983
10.000003333
10.0000030197
10.0000026608
10.0000022599
10.0000018216
10.0000013516
10.0000008567
10.0000003445
9.99999982437
9.99999930557
9.99999879799
9.99999831046
9.99999785183
9.9999974293
9.99999704969
9.9999967176
9.99999643707
9.9999962096
9.99999603615
9.99999591513
9.99999584471
9.99999582072
9.99999583919
9.99999589408
9.99999597999
9.9999960898
9.99999621756
9.99999635627
9.99999650114
9.99999664749
9.99999679417
9.99999694103
9.99999709158
9.99999724929
9.99999741948
9.99999760562
9.99999781162
9.99999803983
9.99999829442
9.99999857897
9.99999889896
9.99999925881
9.99999966381
10.000000117
10.000000621
10.0000011757
10.0000017798
10.000002429
10.0000031182
10.0000038398
10.0000045857
10.0000053459
10.0000061106
10.0000068689
10.0000076105
10.0000083248
10.0000090021
10.0000096333
10.0000102107
10.0000107272
10.0000111778
10.0000115574
10.0000118612
10.0000120863
10.0000122316
10.0000122982
10.0000122887
10.0000122074
10.0000120592
10.0000118505
10.0000115879
10.0000112789
10.0000109306
10.0000105509
10.0000101472
10.0000097272
10.0000092978
10.0000088662
10.0000084385
10.0000080213
10.0000076197
10.0000072393
10.0000068844
10.0000065596
10.0000062684
10.0000060143
10.0000058
10.0000056283
10.0000055013
10.0000054212
10.0000053896
10.0000054083
10.0000054786
10.0000056001
10.0000057783
10.0000059829
10.0000063424
10.0000069966
10.0000000676
10.0000001428
10.0000002808
10.0000004508
10.0000006257
10.000000803
10.000000984
10.0000011714
10.0000013718
10.0000015836
10.0000018048
10.0000020334
10.0000022672
10.0000025042
10.0000027417
10.0000029771
10.0000032073
10.0000034293
10.0000036397
10.0000038354
10.0000040132
10.0000041698
10.0000043024
10.0000044078
10.0000044833
10.0000045264
10.000004535
10.0000045075
10.000004443
10.0000043412
10.0000042026
10.0000040283
10.0000038208
10.0000035828
10.0000033181
10.0000030311
10.0000027272
10.0000024114
10.0000020903
10.0000017696
10.0000014559
10.0000011544
10.0000008709
10.0000006094
10.000000374
10.0000001668
9.99999998991
9.99999984343
9.99999972742
9.99999964021
9.99999958038
9.99999954503
9.99999953182
9.99999953705
9.99999955773
9.99999958943
9.99999962858
9.99999967038
9.99999971151
9.99999974836
9.99999978
9.99999980624
9.9999998299
9.99999985356
9.99999988097
9.99999991374
9.99999995358
10.0000000009
10.0000000583
10.0000001283
10.0000002159
10.0000003259
10.0000004641
10.0000006348
10.0000008418
10.0000010868
10.0000013703
10.0000016904
10.0000020445
10.0000024279
10.0000028356
10.0000032615
10.0000036994
10.0000041426
10.0000045846
10.0000050188
10.000005439
10.0000058395
10.0000062151
10.000006561
10.0000068736
10.0000071496
10.0000073864
10.000007582
10.0000077352
10.0000078457
10.000007914
10.0000079417
10.0000079309
10.0000078846
10.000007806
10.0000076992
10.0000075682
10.0000074174
10.0000072513
10.0000070744
10.0000068912
10.0000067061
10.000006523
10.0000063463
10.0000061794
10.000006026
10.0000058891
10.0000057717
10.0000056762
10.0000056053
10.0000055606
10.0000055443
10.0000055577
10.0000056026
10.0000056801
10.0000057915
10.0000059386
10.0000061186
10.000006342
10.0000065672
10.0000069114
10.0000073884
10.0000000838
10.0000001658
10.0000003111
10.0000004923
10.0000006772
10.0000008595
10.0000010394
10.0000012191
10.0000014022
10.0000015936
10.0000017929
10.0000019984
10.0000022085
10.0000024216
10.0000026358
10.0000028492
10.0000030595
10.0000032643
10.0000034612
10.0000036475
10.0000038206
10.0000039779
10.0000041169
10.000004235
10.0000043303
10.0000044007
10.0000044447
10.0000044609
10.0000044488
10.0000044081
10.0000043393
10.000004243
10.0000041214
10.0000039758
10.0000038098
10.0000036256
10.0000034278
10.0000032193
10.0000030052
10.0000027887
10.0000025747
10.0000023664
10.0000021677
10.0000019813
10.0000018098
10.0000016548
10.0000015177
10.0000013986
10.0000012979
10.0000012148
10.0000011488
10.0000010986
10.0000010633
10.0000010412
10.0000010307
10.0000010294
10.0000010345
10.0000010427
10.0000010507
10.0000010554
10.0000010553
10.0000010506
10.0000010435
10.0000010368
10.0000010332
10.0000010337
10.0000010379
10.0000010449
10.0000010551
10.00000107
10.0000010927
10.0000011271
10.0000011777
10.0000012479
10.0000013409
10.0000014582
10.0000016002
10.0000017657
10.0000019529
10.0000021585
10.0000023793
10.0000026113
10.0000028506
10.0000030929
10.0000033347
10.0000035719
10.0000038013
10.0000040196
10.0000042241
10.0000044123
10.0000045825
10.0000047332
10.0000048633
10.0000049724
10.0000050602
10.0000051272
10.000005174
10.0000052017
10.000005212
10.0000052065
10.0000051874
10.000005157
10.0000051177
10.0000050722
10.0000050229
10.0000049727
10.0000049239
10.0000048791
10.0000048406
10.0000048106
10.0000047913
10.0000047845
10.0000047919
10.000004815
10.0000048551
10.0000049136
10.0000049912
10.0000050891
10.0000052078
10.0000053483
10.0000055111
10.0000056967
10.0000059068
10.0000061371
10.0000063997
10.0000066514
10.0000069956
10.0000074143
10.0000000973
10.0000001838
10.0000003335
10.0000005252
10.0000007213
10.0000009113
10.0000010933
10.0000012695
10.0000014432
10.0000016183
10.000001799
10.0000019847
10.0000021739
10.0000023652
10.0000025571
10.0000027481
10.0000029366
10.0000031207
10.0000032985
10.0000034681
10.0000036274
10.0000037743
10.000003907
10.0000040234
10.0000041221
10.0000042011
10.0000042597
10.0000042962
10.0000043108
10.0000043022
10.0000042718
10.0000042185
10.0000041456
10.0000040517
10.0000039418
10.0000038145
10.0000036763
10.0000035257
10.0000033699
10.0000032079
10.0000030462
10.0000028846
10.0000027281
10.0000025774
10.0000024356
10.0000023035
10.0000021827
10.0000020737
10.0000019771
10.000001893
10.0000018213
10.0000017619
10.0000017146
10.0000016788
10.0000016536
10.0000016375
10.0000016281
10.0000016224
10.0000016168
10.0000016082
10.0000015947
10.0000015765
10.0000015563
10.0000015378
10.0000015241
10.0000015162
10.0000015127
10.0000015119
10.0000015131
10.0000015172
10.0000015267
10.0000015448
10.0000015748
10.0000016193
10.0000016803
10.000001758
10.0000018518
10.0000019598
10.0000020795
10.000002208
10.0000023419
10.0000024783
10.0000026142
10.0000027469
10.0000028741
10.0000029938
10.0000031044
10.0000032044
10.0000032928
10.0000033691
10.0000034327
10.0000034838
10.0000035225
10.0000035495
10.0000035655
10.0000035718
10.0000035695
10.0000035602
10.0000035454
10.000003527
10.0000035066
10.0000034862
10.0000034675
10.0000034525
10.0000034427
10.00000344
10.0000034457
10.0000034614
10.0000034883
10.0000035275
10.0000035801
10.0000036468
10.0000037284
10.0000038254
10.0000039382
10.0000040672
10.0000042124
10.0000043741
10.0000045523
10.0000047471
10.0000049586
10.0000051868
10.0000054322
10.0000056915
10.000005972
10.0000062451
10.0000065691
10.0000069993
10.0000001084
10.0000001986
10.0000003507
10.0000005491
10.0000007545
10.0000009531
10.0000011402
10.0000013168
10.0000014866
10.000001653
10.0000018205
10.000001992
10.0000021662
10.0000023419
10.0000025177
10.0000026923
10.0000028645
10.0000030329
10.0000031959
10.0000033519
10.0000034996
10.0000036371
10.0000037632
10.0000038759
10.0000039746
10.0000040568
10.000004123
10.0000041702
10.0000042006
10.00000421
10.0000042034
10.0000041744
10.0000041321
10.0000040668
10.0000039925
10.0000038958
10.0000037954
10.0000036748
10.0000035557
10.000003421
10.0000032914
10.0000031527
10.0000030213
10.000002888
10.0000027628
10.0000026418
10.0000025294
10.000002425
10.0000023298
10.0000022443
10.0000021687
10.0000021034
10.0000020487
10.0000020047
10.0000019708
10.000001946
10.0000019281
10.0000019139
10.0000018995
10.0000018811
10.0000018562
10.0000018251
10.000001791
10.0000017594
10.0000017343
10.0000017171
10.0000017059
10.0000016983
10.0000016935
10.0000016924
10.0000016975
10.0000017121
10.0000017389
10.00000178
10.0000018362
10.0000019067
10.0000019895
10.0000020818
10.00000218
10.0000022805
10.0000023799
10.0000024748
10.0000025628
10.0000026415
10.0000027093
10.0000027652
10.0000028086
10.000002839
10.0000028567
10.000002862
10.0000028557
10.0000028388
10.0000028125
10.0000027781
10.0000027373
10.0000026918
10.0000026433
10.0000025938
10.0000025451
10.000002499
10.0000024575
10.0000024223
10.0000023949
10.000002377
10.00000237
10.000002375
10.0000023931
10.0000024252
10.0000024721
10.0000025341
10.0000026119
10.0000027055
10.0000028151
10.0000029406
10.0000030818
10.0000032387
10.0000034106
10.0000035975
10.0000037986
10.0000040141
10.0000042427
10.0000044855
10.00000474
10.0000050078
10.0000052844
10.0000055672
10.0000058555
10.0000063018
10.0000001148
10.000000209
10.0000003613
10.0000005657
10.0000007805
10.0000009882
10.000001182
10.0000013615
10.0000015303
10.0000016925
10.0000018521
10.0000020131
10.0000021766
10.0000023412
10.0000025058
10.0000026693
10.0000028305
10.0000029881
10.0000031411
10.000003288
10.000003428
10.0000035592
10.0000036813
10.0000037915
10.0000038908
10.000003975
10.0000040477
10.0000041013
10.0000041446
10.0000041641
10.0000041772
10.0000041606
10.0000041446
10.0000040919
10.00000405
10.000003964
10.0000039004
10.0000037873
10.0000037065
10.0000035762
10.0000034822
10.0000033467
10.0000032436
10.0000031139
10.0000030075
10.0000028907
10.0000027881
10.0000026868
10.0000025948
10.0000025097
10.0000024331
10.0000023654
10.0000023072
10.0000022593
10.0000022214
10.0000021928
10.0000021712
10.0000021532
10.0000021337
10.000002108
10.0000020723
10.0000020265
10.0000019748
10.0000019246
10.0000018819
10.0000018485
10.0000018219
10.000001799
10.000001779
10.0000017636
10.0000017561
10.0000017606
10.0000017801
10.0000018166
10.00000187
10.0000019388
10.0000020198
10.0000021089
10.0000022017
10.0000022938
10.0000023809
10.0000024597
10.0000025272
10.0000025815
10.000002621
10.0000026451
10.0000026536
10.0000026466
10.000002625
10.0000025898
10.0000025423
10.0000024841
10.000002417
10.0000023429
10.000002264
10.0000021823
10.0000021
10.0000020194
10.0000019425
10.0000018713
10.0000018079
10.0000017539
10.000001711
10.0000016807
10.0000016641
10.0000016623
10.0000016761
10.0000017061
10.0000017529
10.0000018165
10.0000018971
10.0000019945
10.0000021086
10.0000022389
10.0000023849
10.0000025462
10.0000027218
10.0000029116
10.000003114
10.0000033298
10.000003556
10.0000037957
10.0000040421
10.0000043038
10.0000045632
10.0000048424
10.0000050937
10.0000055316
10.0000001188
10.0000002165
10.0000003692
10.0000005769
10.0000007986
10.0000010151
10.0000012167
10.0000014015
10.0000015723
10.0000017339
10.0000018899
10.0000020449
10.0000022015
10.000002359
10.0000025164
10.0000026726
10.0000028269
10.0000029779
10.0000031252
10.0000032668
10.000003403
10.0000035308
10.0000036521
10.0000037614
10.0000038641
10.0000039499
10.0000040312
10.000004088
10.0000041467
10.0000041692
10.0000042064
10.0000041892
10.0000042086
10.0000041472
10.0000041545
10.0000040474
10.0000040481
10.0000038995
10.0000038955
10.0000037182
10.000003705
10.0000035202
10.0000034891
10.0000033199
10.0000032646
10.0000031257
10.0000030501
10.0000029417
10.000002859
10.0000027731
10.0000026974
10.000002629
10.0000025696
10.0000025202
10.0000024812
10.0000024521
10.0000024302
10.0000024117
10.0000023903
10.0000023597
10.000002314
10.0000022526
10.0000021806
10.0000021083
10.0000020442
10.0000019911
10.0000019449
10.000001902
10.0000018614
10.0000018264
10.0000018016
10.0000017917
10.0000018002
10.0000018289
10.0000018773
10.0000019435
10.0000020229
10.0000021103
10.0000022001
10.000002287
10.0000023664
10.0000024346
10.0000024886
10.0000025265
10.0000025481
10.0000025528
10.0000025404
10.0000025115
10.000002467
10.000002408
10.0000023364
10.0000022538
10.0000021625
10.0000020646
10.0000019624
10.0000018583
10.0000017547
10.0000016539
10.0000015582
10.0000014697
10.0000013906
10.0000013224
10.0000012669
10.0000012255
10.0000011992
10.0000011891
10.0000011958
10.0000012197
10.0000012612
10.0000013203
10.0000013968
10.0000014904
10.0000016007
10.0000017271
10.0000018688
10.0000020254
10.0000021954
10.0000023788
10.0000025733
10.0000027805
10.0000029955
10.0000032239
10.0000034547
10.0000037026
10.0000039401
10.0000042053
10.0000044259
10.0000048318
10.0000001182
10.0000002175
10.00000037
10.0000005822
10.0000008118
10.0000010376
10.0000012479
10.0000014396
10.0000016144
10.0000017775
10.0000019326
10.0000020846
10.0000022369
10.0000023897
10.0000025425
10.0000026942
10.0000028444
10.0000029915
10.0000031359
10.0000032747
10.0000034101
10.0000035365
10.0000036599
10.0000037691
10.0000038785
10.0000039645
10.0000040591
10.000004114
10.0000041961
10.0000042099
10.0000042863
10.0000042456
10.0000043288
10.0000042175
10.0000043248
10.0000041276
10.0000042761
10.0000039858
10.0000041823
10.0000038124
10.0000040402
10.000003634
10.0000038492
10.0000034729
10.000003621
10.0000033334
10.0000033838
10.0000032009
10.0000031704
10.0000030626
10.000002999
10.0000029294
10.000002872
10.0000028249
10.0000027886
10.000002763
10.0000027457
10.0000027318
10.0000027137
10.0000026822
10.0000026291
10.0000025514
10.0000024554
10.0000023552
10.000002264
10.0000021852
10.0000021129
10.0000020414
10.0000019712
10.0000019074
10.0000018568
10.0000018251
10.0000018169
10.0000018348
10.0000018774
10.0000019403
10.0000020177
10.000002103
10.0000021895
10.0000022713
10.0000023436
10.0000024026
10.0000024456
10.0000024708
10.0000024776
10.0000024659
10.0000024358
10.00000239
10.0000023292
10.0000022547
10.000002168
10.0000020709
10.0000019656
10.0000018543
10.0000017392
10.000001623
10.0000015079
10.0000013965
10.0000012909
10.0000011934
10.0000011059
10.0000010304
10.0000009682
10.0000009208
10.0000008892
10.0000008743
10.0000008766
10.0000008965
10.0000009341
10.0000009894
10.0000010619
10.0000011514
10.0000012571
10.0000013785
10.0000015144
10.0000016644
10.0000018266
10.0000020014
10.0000021856
10.0000023818
10.0000025832
10.0000027979
10.0000030111
10.0000032423
10.0000034582
10.0000037036
10.000003901
10.0000042609
10.0000001161
10.0000002156
10.0000003695
10.0000005837
10.0000008191
10.0000010536
10.0000012735
10.0000014738
10.0000016552
10.0000018223
10.0000019796
10.0000021316
10.0000022826
10.0000024334
10.0000025841
10.0000027335
10.0000028821
10.0000030275
10.0000031716
10.0000033096
10.000003447
10.0000035732
10.0000037023
10.0000038113
10.000003932
10.0000040153
10.0000041307
10.0000041757
10.000004295
10.0000042817
10.0000044245
10.0000043221
10.0000045224
10.0000042867
10.000004595
10.0000041704
10.0000046466
10.0000039807
10.0000046711
10.0000037475
10.0000046438
10.0000035257
10.0000045248
10.0000033782
10.0000042863
10.0000033312
10.0000039513
10.0000033385
10.0000036104
10.0000033233
10.0000033564
10.0000032506
10.0000032061
10.000003161
10.0000031275
10.0000031076
10.0000030973
10.0000030917
10.0000030813
10.0000030536
10.0000029957
10.0000029013
10.0000027772
10.000002644
10.0000025213
10.0000024142
10.0000023125
10.0000022089
10.0000021054
10.000002011
10.0000019338
10.0000018816
10.00000186
10.0000018704
10.0000019097
10.0000019716
10.0000020481
10.0000021309
10.0000022125
10.0000022865
10.0000023482
10.0000023942
10.0000024223
10.0000024314
10.0000024214
10.0000023927
10.0000023457
10.0000022823
10.0000022027
10.0000021117
10.0000020108
10.0000019012
10.000001785
10.0000016642
10.0000015411
10.0000014178
10.0000012969
10.0000011805
10.000001071
10.0000009703
10.0000008805
10.0000008032
10.00000074
10.0000006919
10.0000006601
10.0000006451
10.0000006476
10.0000006676
10.0000007052
10.0000007601
10.0000008319
10.0000009201
10.0000010238
10.0000011424
10.0000012745
10.0000014197
10.0000015757
10.0000017434
10.0000019184
10.0000021047
10.0000022936
10.0000024953
10.0000026924
10.000002907
10.0000031043
10.0000033278
10.0000035089
10.0000038176
10.0000001095
10.0000002064
10.0000003636
10.0000005807
10.0000008225
10.000001066
10.000001296
10.0000015059
10.0000016953
10.0000018684
10.0000020296
10.0000021838
10.0000023358
10.0000024864
10.0000026368
10.0000027855
10.0000029342
10.0000030792
10.000003225
10.0000033632
10.0000035049
10.0000036315
10.0000037691
10.0000038771
10.0000040135
10.0000040908
10.0000042347
10.0000042606
10.0000044327
10.0000043711
10.0000046129
10.0000044022
10.0000047887
10.000004329
10.0000049819
10.0000041265
10.0000052154
10.0000037824
10.0000054948
10.0000033236
10.0000057761
10.0000028483
10.0000059415
10.0000025274
10.0000058207
10.0000025188
10.0000053245
10.000002838
10.0000045966
10.0000032606
10.0000039544
10.0000035049
10.0000036082
10.0000035275
10.000003502
10.0000034949
10.0000034969
10.0000035064
10.0000035113
10.0000034986
10.0000034449
10.0000033352
10.0000031777
10.0000030025
10.0000028401
10.0000026956
10.000002552
10.0000023999
10.0000022479
10.0000021109
10.0000019998
10.0000019241
10.0000018895
10.0000018957
10.0000019369
10.0000020034
10.0000020844
10.0000021691
10.0000022488
10.0000023167
10.0000023683
10.0000024007
10.0000024127
10.0000024043
10.000002376
10.0000023289
10.0000022641
10.0000021836
10.0000020885
10.0000019812
10.0000018632
10.0000017398
10.0000016124
10.0000014827
10.0000013526
10.0000012243
10.0000010998
10.0000009814
10.000000871
10.0000007706
10.000000682
10.0000006068
10.0000005462
10.0000005013
10.000000473
10.0000004618
10.0000004681
10.0000004918
10.0000005328
10.0000005908
10.0000006651
10.0000007551
10.0000008597
10.0000009782
10.000001109
10.0000012519
10.0000014041
10.0000015668
10.000001735
10.0000019132
10.0000020918
10.0000022822
10.0000024658
10.000002665
10.0000028472
10.0000030486
10.000003219
10.0000034751
10.0000001022
10.0000001953
10.0000003573
10.0000005752
10.0000008212
10.0000010725
10.0000013127
10.0000015334
10.0000017327
10.000001914
10.0000020816
10.0000022405
10.000002396
10.0000025487
10.0000027008
10.0000028505
10.0000030012
10.0000031474
10.0000032967
10.0000034364
10.0000035843
10.0000037125
10.0000038608
10.0000039683
10.0000041231
10.0000041937
10.0000043703
10.0000043738
10.0000046063
10.0000044869
10.0000048452
10.0000044996
10.0000051171
10.0000043626
10.0000054743
10.0000040085
10.0000059901
10.0000033634
10.0000067338
10.0000023906
10.0000077051
10.0000011812
10.0000087236
10.0000000447
10.0000093454
9.99999952825
10.0000090418
10.0000000949
10.0000076408
10.0000015716
10.0000057539
10.0000030553
10.0000043861
10.0000037855
10.0000039092
10.0000039112
10.0000039147
10.0000039439
10.0000039773
10.0000039945
10.0000039489
10.0000038177
10.0000036266
10.0000034139
10.0000032031
10.0000029892
10.0000027529
10.0000025045
10.0000022793
10.0000021023
10.000001979
10.0000019091
10.0000018905
10.0000019176
10.0000019806
10.0000020664
10.0000021616
10.0000022539
10.000002334
10.0000023955
10.0000024346
10.0000024499
10.0000024415
10.0000024104
10.0000023585
10.0000022877
10.0000022002
10.000002098
10.0000019835
10.0000018583
10.000001725
10.0000015842
10.0000014421
10.000001301
10.0000011624
10.000001028
10.0000008997
10.0000007793
10.0000006687
10.0000005696
10.0000004836
10.0000004121
10.0000003562
10.0000003167
10.0000002944
10.0000002895
10.0000003023
10.0000003325
10.0000003798
10.0000004437
10.0000005234
10.000000618
10.0000007264
10.0000008476
10.00000098
10.0000011231
10.0000012742
10.0000014341
10.0000015981
10.0000017703
10.0000019416
10.0000021221
10.0000022955
10.00000248
10.0000026512
10.00000283
10.0000029951
10.0000031972
10.0000000903
10.0000001781
10.0000003431
10.0000005667
10.0000008172
10.0000010761
10.0000013261
10.0000015577
10.0000017677
10.0000019585
10.000002134
10.0000022995
10.00000246
10.0000026162
10.0000027715
10.0000029234
10.0000030773
10.0000032258
10.0000033795
10.0000035221
10.0000036769
10.0000038083
10.0000039672
10.0000040772
10.0000042484
10.0000043176
10.000004521
10.0000045129
10.0000047926
10.0000046353
10.0000050846
10.0000046389
10.0000054455
10.0000044456
10.0000059679
10.0000039274
10.0000068075
10.0000028949
10.0000081815
10.0000011256
10.0000103002
9.99999849191
10.0000131361
9.99999524248
10.000016106
9.99999240147
10.0000178286
9.99999166033
10.000016678
9.99999419734
10.0000124701
9.99999891627
10.0000075711
10.0000028145
10.0000047841
10.0000043021
10.0000043073
10.0000044317
10.0000045467
10.0000045916
10.0000044973
10.000004391
10.0000043182
10.0000040815
10.0000034981
10.0000026046
10.0000016283
10.0000008566
10.0000004717
10.0000004598
10.0000006835
10.0000009984
10.0000013147
10.000001595
10.0000018329
10.0000020326
10.0000021982
10.0000023306
10.0000024294
10.0000024943
10.0000025266
10.0000025287
10.0000025033
10.0000024536
10.0000023822
10.0000022916
10.000002184
10.0000020616
10.0000019266
10.0000017813
10.0000016281
10.0000014698
10.0000013076
10.0000011477
10.0000009939
10.0000008476
10.0000007105
10.0000005843
10.0000004706
10.0000003709
10.0000002864
10.0000002182
10.000000167
10.0000001336
10.0000001182
10.0000001209
10.0000001416
10.0000001798
10.0000002352
10.0000003066
10.0000003936
10.0000004943
10.0000006085
10.0000007338
10.00000087
10.0000010143
10.0000011667
10.0000013244
10.0000014869
10.0000016528
10.0000018197
10.0000019888
10.0000021557
10.0000023216
10.0000024863
10.000002635
10.0000028
10.0000029364
10.0000000783
10.0000001605
10.0000003289
10.0000005579
10.0000008107
10.0000010752
10.0000013343
10.0000015768
10.0000017986
10.0000020001
10.0000021857
10.0000023599
10.0000025273
10.0000026887
10.0000028486
10.0000030044
10.0000031626
10.0000033152
10.0000034742
10.0000036219
10.0000037836
10.0000039216
10.0000040892
10.0000042076
10.0000043892
10.0000044693
10.0000046844
10.0000046896
10.0000049822
10.0000048398
10.0000053064
10.0000048688
10.0000057133
10.0000046814
10.0000063234
10.0000041
10.0000073708
10.0000028077
10.0000092652
10.0000002948
10.0000126151
9.99999588153
10.0000180416
9.99998911176
10.0000256192
9.99998066477
10.000033669
9.99997354579
10.000037951
9.99997280652
10.0000337446
9.99998130268
10.0000216835
9.99999427697
10.0000098559
10.0000030716
10.0000047884
10.0000052388
10.0000052209
10.0000048846
10.0000048105
10.0000058566
10.000006362
10.0000034822
9.99999639805
9.9999872183
9.9999793152
9.99997525638
9.99997570031
9.99997954136
9.99998492925
9.99999025293
9.99999460288
9.99999772769
9.9999997766
10.0000010416
10.0000017972
10.0000022401
10.0000024903
10.0000026139
10.0000026469
10.0000026114
10.0000025244
10.0000024013
10.0000022553
10.0000020973
10.0000019349
10.0000017725
10.0000016123
10.0000014545
10.0000012992
10.0000011454
10.0000009939
10.0000008429
10.0000006989
10.0000005636
10.000000438
10.000000323
10.0000002204
10.0000001314
10.0000000574
9.99999999945
9.99999995869
9.99999993534
9.99999993026
9.99999994282
9.99999997373
10.0000000213
10.0000000865
10.0000001661
10.0000002621
10.0000003693
10.0000004914
10.0000006202
10.0000007627
10.0000009065
10.0000010635
10.0000012149
10.0000013803
10.0000015318
10.0000017
10.0000018433
10.0000020102
10.0000021337
10.0000022987
10.0000023793
10.0000025503
10.0000025633
10.0000000622
10.0000001376
10.0000003082
10.0000005437
10.0000008046
10.0000010739
10.0000013403
10.0000015927
10.0000018257
10.0000020387
10.0000022356
10.0000024192
10.0000025941
10.0000027618
10.0000029271
10.000003088
10.0000032511
10.0000034092
10.0000035735
10.0000037285
10.000003896
10.0000040442
10.0000042174
10.0000043508
10.0000045354
10.0000046391
10.0000048489
10.0000048944
10.0000051621
10.0000050924
10.0000054923
10.0000051894
10.0000058863
10.0000050992
10.0000064556
10.0000046451
10.0000074472
10.0000034621
10.0000093754
10.0000008291
10.000013209
9.99999542713
10.0000205643
9.99998536673
10.0000334514
9.99996898993
10.000052564
9.9999476282
10.0000734664
9.99992980062
10.000083604
9.99993039819
10.0000697786
9.99995552521
10.0000377312
9.99998776144
10.0000110567
10.0000063484
10.0000039362
10.0000034304
10.0000090163