/*--------------------------------*- C++ -*----------------------------------*\
  =========                 |
  \\      /  F ield         | OpenFOAM: The Open Source CFD Toolbox
   \\    /   O peration     | Website:  https://openfoam.org
    \\  /    A nd           | Version:  7
     \\/     M anipulation  |
\*---------------------------------------------------------------------------*/
FoamFile
{
    version     2.0;
    format      ascii;
    class       volScalarField;
    location    "2820";
    object      p;
}
// * * * * * * * * * * * * * * * * * * * * * * * * * * * * * * * * * * * * * //

dimensions      [0 2 -2 0 0 0 0];

internalField   nonuniform List<scalar> 
8192
(
0.000565938120857
0.000394385155092
0.000308761072467
0.000264636698221
0.000239600300767
0.000224352129213
0.000214474563828
0.000207723162264
0.000202891033514
0.000199294095404
0.000196524910231
0.000194329476164
0.000192542830697
0.000191053936032
0.00018978572398
0.000188683297141
0.000187706687269
0.000186826254312
0.00018601966957
0.000185269880306
0.000184563700901
0.000183890814892
0.000183243053143
0.000182613861531
0.000181997901128
0.000181390742295
0.000180788626102
0.000180188274131
0.000179586733035
0.000178981243335
0.000178369125161
0.000177747675078
0.000177114068557
0.000176465263915
0.000175797904238
0.000175108214279
0.000174391889731
0.000173643976836
0.000172858740874
0.000172029523073
0.000171148586732
0.000170206955293
0.000169194247588
0.00016809851904
0.00016690612184
0.000165601602559
0.000164167661441
0.00016258520372
0.000160833518149
0.000158890620469
0.000156733797297
0.000154340377479
0.000151688740947
0.000148759549939
0.000145537154355
0.000142011086169
0.000138177520732
0.000134040552596
0.000129613115527
0.000124917380866
0.000119984503516
0.000114853659365
0.000109570426342
0.000104184682394
9.87482870189e-05
9.33128425241e-05
8.79277847051e-05
8.26389410531e-05
7.74875679949e-05
7.25097948851e-05
6.7736355107e-05
6.31924852871e-05
5.88979057023e-05
5.48668405662e-05
5.11080792407e-05
4.76251098889e-05
4.44163683097e-05
4.14756372345e-05
3.87926078238e-05
3.63535853624e-05
3.4142293569e-05
3.21407156404e-05
3.03299070441e-05
2.86907249723e-05
2.72044364487e-05
2.5853187075e-05
2.46203297961e-05
2.34906263371e-05
2.24503414787e-05
2.14872535469e-05
2.05906038644e-05
1.97510054449e-05
1.89603274806e-05
1.82115684462e-05
1.74987270628e-05
1.68166774337e-05
1.61610522851e-05
1.55281364736e-05
1.49147716732e-05
1.43182722534e-05
1.37363518678e-05
1.31670598704e-05
1.26087266122e-05
1.20599164985e-05
1.15193878398e-05
1.09860584347e-05
1.04589760733e-05
9.93729306692e-06
9.42024420606e-06
8.90712745822e-06
8.39728705106e-06
7.89009851203e-06
7.38495564662e-06
6.88125945576e-06
6.37840960672e-06
5.87579940243e-06
5.3728163731e-06
4.8688519011e-06
4.36332618848e-06
3.85573928284e-06
3.34576768253e-06
2.83344202633e-06
2.31947392576e-06
1.80586721028e-06
1.29710157757e-06
8.02555128319e-07
3.42459457794e-07
1.76376686591e-08
0.000417027678166
0.00035351051638
0.000303814823866
0.000271154890248
0.000249224021891
0.000234032651722
0.000223202644368
0.000215269512236
0.000209308261036
0.000204720652805
0.000201110690624
0.000198210203248
0.000195833545961
0.000193849509206
0.00019216355765
0.000190706373751
0.000189426316849
0.000188284359032
0.000187250617333
0.000186301934193
0.000185420159061
0.000184590907191
0.000183802648741
0.000183046029917
0.000182313359447
0.00018159821418
0.000180895131313
0.000180199363959
0.000179506683196
0.000178813213385
0.000178115291922
0.000177409346379
0.00017669178251
0.000175958878517
0.00017520668181
0.000174430905175
0.000173626819851
0.00017278914367
0.000171911923165
0.000170988409469
0.000170010929091
0.000168970752312
0.000167857964111
0.000166661345399
0.000165368275767
0.000163964673145
0.000162434990188
0.000160762291711
0.000158928440887
0.000156914423424
0.000154700836547
0.000152268562322
0.000149599630772
0.000146678257698
0.000143492015551
0.000140033066318
0.000136299356473
0.000132295650721
0.000128034267924
0.000123535386189
0.000118826811553
0.000113943163434
0.000108924517539
0.000103814646576
9.86590776429e-05
9.35032095321e-05
8.83906981128e-05
8.33622223315e-05
7.84546371752e-05
7.37004581029e-05
6.91275826134e-05
6.47591558189e-05
6.06135131001e-05
5.67041683414e-05
5.30398489302e-05
4.96246020261e-05
4.64580051287e-05
4.35355075702e-05
4.08489104672e-05
3.83869684939e-05
3.61360747618e-05
3.40809771849e-05
3.22054727033e-05
3.04930340381e-05
2.89273376949e-05
2.74926780335e-05
2.61742662481e-05
2.49584237206e-05
2.3832685365e-05
2.27858312977e-05
2.18078649237e-05
2.08899537806e-05
2.00243467228e-05
1.92042781977e-05
1.84238675927e-05
1.76780193175e-05
1.69623273595e-05
1.62729865866e-05
1.56067119888e-05
1.49606662633e-05
1.43323956597e-05
1.37197736282e-05
1.31209516777e-05
1.25343166913e-05
1.19584539967e-05
1.13921154223e-05
1.08341917125e-05
1.02836886424e-05
9.73970636182e-06
9.20142148224e-06
8.66807165477e-06
8.13894239847e-06
7.61335625552e-06
7.0906644536e-06
6.57024175156e-06
6.05148550713e-06
5.53382093072e-06
5.01671551842e-06
4.49970766422e-06
3.98245721691e-06
3.46483060763e-06
2.94704068127e-06
2.42987431534e-06
1.91506300706e-06
1.40589113176e-06
9.08237481549e-07
4.31951630466e-07
5.70543345691e-08
0.000334088582928
0.00031141622958
0.000285417695884
0.000264173665413
0.0002480469657
0.000235729074776
0.000226200944485
0.000218735236121
0.000212810127922
0.000208046546625
0.000204166277173
0.000200963329325
0.000198283903963
0.000196012188292
0.000194060209823
0.000192360550217
0.000190861084056
0.000189521155425
0.000188308778814
0.000187198572922
0.000186170221934
0.000185207318808
0.000184296487375
0.000183426709302
0.000182588802775
0.000181775014179
0.000180978694421
0.000180194038815
0.000179415875016
0.000178639485765
0.000177860458587
0.000177074555594
0.000176277596462
0.000175465350328
0.000174633433029
0.000173777206669
0.000172891679226
0.000171971402498
0.000171010367406
0.000170001896523
0.000168938534729
0.000167811940336
0.000166612780744
0.000165330639047
0.000163953940748
0.0001624699132
0.000160864593956
0.000159122908127
0.00015722883777
0.000155165708011
0.000152916613043
0.000150464999509
0.000147795413185
0.000144894397579
0.000141751510011
0.000138360395299
0.000134719831684
0.000130834642872
0.000126716356531
0.000122383489143
0.000117861356067
0.000113181354361
0.000108379745947
0.000103496066979
9.85713702203e-05
9.36465321409e-05
8.87608247935e-05
8.39508495114e-05
7.92498209629e-05
7.46871418979e-05
7.02881753444e-05
6.60741280066e-05
6.20619875293e-05
5.82644902058e-05
5.46901251031e-05
5.13432012363e-05
4.82240112912e-05
4.53291184921e-05
4.26517740699e-05
4.01824492275e-05
3.79094443932e-05
3.58195270636e-05
3.38985486841e-05
3.21319999165e-05
3.05054772763e-05
2.90050490653e-05
2.76175208643e-05
2.63306098253e-05
2.51330418092e-05
2.40145873085e-05
2.29660515243e-05
2.19792322935e-05
2.10468571547e-05
2.01625084568e-05
1.93205431562e-05
1.85160120481e-05
1.77445816545e-05
1.70024607727e-05
1.62863328523e-05
1.55932946702e-05
1.49208014167e-05
1.42666179221e-05
1.3628775689e-05
1.30055351739e-05
1.23953528605e-05
1.17968525189e-05
1.12088002308e-05
1.06300826396e-05
1.00596881219e-05
9.49669046947e-06
8.94023494887e-06
8.38952652189e-06
7.84382034946e-06
7.30241467439e-06
6.76464662959e-06
6.22989163085e-06
5.69756768345e-06
5.16714634427e-06
4.6381731921e-06
4.11030169671e-06
3.58334641468e-06
3.05736388945e-06
2.53277395264e-06
2.0105398755e-06
1.492432527e-06
9.81349524672e-07
4.81088469834e-07
6.78747867278e-08
0.000289550920177
0.000281153643201
0.00026695111597
0.000253148720613
0.000241710698417
0.000232426733115
0.000224844491976
0.000218596021381
0.000213403363156
0.000209054036425
0.00020538229051
0.00020225701918
0.000199573704046
0.000197248653964
0.000195214651707
0.000193417561284
0.000191813648749
0.00019036745765
0.000189050123344
0.000187838035651
0.000186711777441
0.000185655280969
0.000184655155584
0.000183700149957
0.000182780719817
0.000181888678319
0.000181016911078
0.000180159141679
0.000179309737012
0.00017846354133
0.00017761573442
0.000176761708505
0.000175896957112
0.000175016972996
0.000174117151959
0.000173192700044
0.000172238542023
0.000171249229695
0.000170218849009
0.000169140925742
0.000168008330287
0.000166813183229
0.00016554676479
0.000164199433182
0.000162760559214
0.000161218487537
0.000159560538269
0.00015777306655
0.000155841600918
0.000153751083893
0.000151486238027
0.000149032076736
0.000146374569721
0.000143501456985
0.000140403183859
0.000137073904497
0.000133512476323
0.000129723346428
0.000125717214945
0.000121511353718
0.000117129468725
0.000112601036278
0.000107960125585
0.000103243832349
9.84905469615e-05
9.3738310193e-05
8.90234762273e-05
8.43797713896e-05
7.98377081433e-05
7.54242754256e-05
7.11627963831e-05
6.70728609247e-05
6.31702787616e-05
5.94670359043e-05
5.59712682638e-05
5.26872866936e-05
4.96156945191e-05
4.67536298299e-05
4.40951428358e-05
4.16316915331e-05
3.93527158624e-05
3.72462387202e-05
3.52994429975e-05
3.3499184696e-05
3.18324176261e-05
3.02865206797e-05
2.88495307737e-05
2.75102924549e-05
2.62585388661e-05
2.50849195685e-05
2.39809894933e-05
2.29391712215e-05
2.1952700334e-05
2.10155613075e-05
2.01224193921e-05
1.92685522971e-05
1.84497842144e-05
1.76624237584e-05
1.69032066982e-05
1.61692438604e-05
1.54579742513e-05
1.47671232165e-05
1.4094665339e-05
1.34387916781e-05
1.27978809564e-05
1.21704742594e-05
1.15552528791e-05
1.09510189165e-05
1.03566783558e-05
9.77122632048e-06
9.19373434155e-06
8.62333947934e-06
8.05923529038e-06
7.50066466735e-06
6.94691478175e-06
6.39731445139e-06
5.851234551e-06
5.30809230347e-06
4.76736078971e-06
4.228585559e-06
3.69141127899e-06
3.15562282165e-06
2.62120740344e-06
2.08844531478e-06
1.55802260403e-06
1.03105162397e-06
5.08372414751e-07
6.96296529662e-08
0.000261950876163
0.00025996691634
0.000252152493585
0.000242946017848
0.000234652776268
0.000227610374542
0.000221661997139
0.000216602420194
0.000212263340838
0.00020851507885
0.000205256342039
0.000202405849983
0.000199896950243
0.000197674249019
0.000195691383354
0.000193909418584
0.000192295605076
0.000190822364613
0.000189466442726
0.000188208192809
0.000187030970439
0.000185920621658
0.000184865051569
0.000183853861166
0.000182878041689
0.000181929717051
0.000181001926105
0.000180088437651
0.00017918359257
0.000178282165171
0.00017737924272
0.000176470119652
0.00017555020042
0.000174614909598
0.000173659606845
0.000172679504717
0.000171669587663
0.000170624530868
0.000169538618005
0.000168405657443
0.000167218897056
0.000165970938661
0.00016465365423
0.000163258107639
0.000161774487795
0.000160192061786
0.000158499160069
0.000156683209789
0.000154730836433
0.000152628057712
0.000150360595149
0.000147914326795
0.000145275896602
0.000142433480987
0.000139377691186
0.000136102563867
0.000132606565924
0.00012889351615
0.000124973307006
0.000120862295275
0.000116583229156
0.000112164612997
0.00010763950102
0.000103043851175
9.84147023755e-05
9.37884776375e-05
8.91996752973e-05
8.4680030384e-05
8.02580631525e-05
7.59589032802e-05
7.18042532951e-05
6.78123856195e-05
6.39981197079e-05
6.03727691124e-05
5.69440818082e-05
5.3716219683e-05
5.06898303859e-05
4.78622535458e-05
4.5227876014e-05
4.2778617368e-05
4.05044994519e-05
3.83942409592e-05
3.64358210988e-05
3.46169708549e-05
3.29255690885e-05
3.13499380291e-05
2.98790451696e-05
2.85026256738e-05
2.72112419308e-05
2.59962964354e-05
2.48500120434e-05
2.376539096e-05
2.27361611166e-05
2.17567162511e-05
2.08220540959e-05
1.99277156055e-05
1.90697270764e-05
1.82445462189e-05
1.74490127131e-05
1.66803033948e-05
1.59358920014e-05
1.52135132352e-05
1.45111308462e-05
1.38269093634e-05
1.31591891309e-05
1.2506464271e-05
1.18673632638e-05
1.12406318118e-05
1.06251177436e-05
1.00197576941e-05
9.42356539456e-06
8.83562139111e-06
8.2550641182e-06
7.68108224922e-06
7.11290837456e-06
6.54981408808e-06
5.99110674837e-06
5.43612831216e-06
4.88425699649e-06
4.33491294176e-06
3.78756982224e-06
3.24177513275e-06
2.69718193567e-06
2.15358926646e-06
1.61095876326e-06
1.06925815236e-06
5.27673266911e-07
6.99369359854e-08
0.000243622380055
0.000244497023295
0.000240435904255
0.000234285762821
0.000228178236452
0.000222735000833
0.000218006437097
0.000213897482598
0.000210301382022
0.000207129506703
0.00020431237265
0.000201795085968
0.000199533145635
0.000197489545325
0.00019563292408
0.000193936384815
0.000192376700839
0.000190933741026
0.00018959002038
0.000188330327493
0.000187141404481
0.000186011666997
0.00018493095762
0.000183890328341
0.000182881848883
0.000181898437923
0.000180933714488
0.000179981867103
0.000179037537903
0.000178095717226
0.000177151649827
0.000176200751046
0.000175238527638
0.000174260503254
0.000173262146896
0.000172238802881
0.000171185621018
0.000170097485838
0.000168968943975
0.000167794129059
0.000166566683892
0.000165279680308
0.000163925538006
0.000162495944979
0.000160981784028
0.000159373072554
0.00015765892628
0.000155827562072
0.000153866360113
0.000151762010868
0.000149500775886
0.000147068891636
0.00014445313927
0.000141641588544
0.000138624500765
0.000135395346643
0.000131951865709
0.000128297068525
0.000124440060059
0.000120396538789
0.000116188808623
0.000111845161102
0.000107398585773
0.000102884950025
9.83409769407e-05
9.38024070481e-05
8.93026729211e-05
8.48721606377e-05
8.05379127652e-05
7.63236114323e-05
7.22496665654e-05
6.83332871771e-05
6.45884841923e-05
6.10260034882e-05
5.76532245847e-05
5.44740860777e-05
5.14891079364e-05
4.86955664777e-05
4.6087842402e-05
4.36579190743e-05
4.13959740695e-05
3.92909928966e-05
3.73313403481e-05
3.5505244881e-05
3.38011750906e-05
3.22081074232e-05
3.07156973743e-05
2.93143726482e-05
2.79953677846e-05
2.67507178078e-05
2.55732251658e-05
2.4456410794e-05
2.33944570551e-05
2.23821478596e-05
2.14148093971e-05
2.04882535839e-05
1.95987253912e-05
1.87428546084e-05
1.79176121824e-05
1.71202710314e-05
1.63483710786e-05
1.55996881783e-05
1.48722065695e-05
1.41640944903e-05
1.34736825971e-05
1.27994448525e-05
1.21399815788e-05
1.14940043929e-05
1.08603227798e-05
1.02378320762e-05
9.62550267979e-06
9.02237030863e-06
8.42752718505e-06
7.84011403007e-06
7.25931282025e-06
6.68434029741e-06
6.11444233983e-06
5.54888942429e-06
4.98697365187e-06
4.42800807048e-06
3.87132929357e-06
3.31630406307e-06
2.76233775016e-06
2.2088720797e-06
1.65532486334e-06
1.10083448715e-06
5.4353220769e-07
7.05469160292e-08
0.000230759694337
0.000232858849486
0.000231039397401
0.000227003982306
0.000222502230572
0.000218250631558
0.000214438332326
0.000211059605097
0.000208057012007
0.00020537007983
0.000202947765476
0.000200749263022
0.000198741952404
0.000196899230282
0.000195198864078
0.000193621870169
0.000192151774591
0.000190774121381
0.000189476132097
0.000188246455268
0.000187074969474
0.00018595261952
0.000184871274443
0.000183823601294
0.000182802951356
0.00018180325685
0.000180818936803
0.000179844811708
0.000178876024211
0.000177907964623
0.000176936202848
0.000175956426055
0.000174964377712
0.000173955798746
0.000172926369714
0.000171871652945
0.000170787033622
0.000169667658811
0.000168508373504
0.000167303652883
0.000166047530189
0.000164733520035
0.000163354537601
0.000161902815255
0.000160369819816
0.00015874617621
0.000157021606909
0.000155184901524
0.000153223937149
0.000151125776968
0.000148876880829
0.000146463464204
0.000143872037768
0.000141090145233
0.000138107291245
0.000134916017727
0.000131513053783
0.000127900437107
0.000124086479833
0.000120086417467
0.000115922537867
0.000111623583219
0.000107223327405
0.000102758479975
9.8266343873e-05
9.37827435812e-05
8.93406498028e-05
8.49695595199e-05
8.06953935891e-05
7.65406757916e-05
7.2524768211e-05
6.8664024372e-05
6.49718150075e-05
6.14584373451e-05
5.81309578755e-05
5.49930689025e-05
5.2045051774e-05
4.92839217045e-05
4.67037819196e-05
4.42963573941e-05
4.20516347159e-05
3.99585191648e-05
3.80054321575e-05
3.61808002748e-05
3.4473417599e-05
3.28726868169e-05
3.13687583071e-05
2.99525913483e-05
2.8615960652e-05
2.73514275605e-05
2.61522905901e-05
2.50125256693e-05
2.39267229459e-05
2.2890024437e-05
2.18980649978e-05
2.09469178714e-05
2.00330453252e-05
1.91532544043e-05
1.83046575703e-05
1.74846378527e-05
1.66908180798e-05
1.59210337434e-05
1.51733090679e-05
1.44458358796e-05
1.37369549124e-05
1.3045139217e-05
1.23689793796e-05
1.17071702863e-05
1.10584992002e-05
1.04218349403e-05
9.79611797913e-06
9.18035129069e-06
8.573591807e-06
7.97494236002e-06
7.38354402092e-06
6.79856878619e-06
6.21921262578e-06
5.64468898084e-06
5.07422287964e-06
4.5070458217e-06
3.94239121514e-06
3.37948866033e-06
2.81755078182e-06
2.25573374729e-06
1.69302247006e-06
1.12793586036e-06
5.57910079873e-07
7.23264532966e-08
0.00022131666963
0.000223877726559
0.000223405329649
0.000220851948412
0.00021756610928
0.000214242145802
0.000211145122473
0.000208337132492
0.000205803726381
0.000203509266566
0.000201417341532
0.000199496673564
0.000197721751697
0.000196071905051
0.000194530160283
0.00019308228751
0.000191716098681
0.000190420957944
0.000189187445098
0.000188007121766
0.000186872363718
0.000185776234929
0.000184712387809
0.00018367498008
0.00018265860255
0.0001816582144
0.000180669083914
0.000179686734759
0.0001787068929
0.000177725436094
0.000176738346787
0.000175741667575
0.00017473145601
0.00017370373964
0.000172654470498
0.000171579478254
0.000170474421151
0.000169334733821
0.000168155570973
0.000166931745975
0.000165657663358
0.000164327244478
0.000162933845942
0.000161470171276
0.000159928177636
0.000158298981847
0.000156572773672
0.000154738749773
0.000152785089181
0.000150699000207
0.000148466877868
0.000146074617211
0.000143508126453
0.00014075406954
0.000137800838305
0.000134639714345
0.00013126614173
0.000127681003659
0.00012389177274
0.00011991335993
0.0001157684103
0.000111486744281
0.000107103753771
0.000102657906733
9.81879334292e-05
9.37304129371e-05
8.93183243977e-05
8.49805903165e-05
8.07422349598e-05
7.6624811358e-05
7.26468098078e-05
6.88238982075e-05
6.51689641343e-05
6.169198601e-05
5.83997996119e-05
5.52958636896e-05
5.23801482373e-05
4.96492468403e-05
4.70967504199e-05
4.4713841545e-05
4.249001148e-05
4.04137858081e-05
3.84733652912e-05
3.66571284497e-05
3.49539820598e-05
3.33535739325e-05
3.18463963772e-05
3.04238116223e-05
2.9078026792e-05
2.78020398061e-05
2.65895712257e-05
2.54349917983e-05
2.43332515316e-05
2.32798134587e-05
2.22705935289e-05
2.13019070336e-05
2.03704213822e-05
1.94731147584e-05
1.86072400426e-05
1.77702933772e-05
1.69599867583e-05
1.61742241012e-05
1.54110802763e-05
1.46687826805e-05
1.39456949575e-05
1.32403025399e-05
1.2551199719e-05
1.1877077997e-05
1.12167154954e-05
1.05689672276e-05
9.9327560593e-06
9.30706420031e-06
8.69092508547e-06
8.08341551831e-06
7.48364796749e-06
6.89076291991e-06
6.3039212079e-06
5.72229620687e-06
5.145065705e-06
4.57140291232e-06
4.00046518001e-06
3.43137671549e-06
2.86319619934e-06
2.29484841902e-06
1.72497685363e-06
1.15164613499e-06
5.71834034263e-07
7.57751231485e-08
0.000214126291642
0.00021679603442
0.000217132334682
0.000215621817279
0.000213267649278
0.000210685061684
0.000208166599274
0.000205819468013
0.000203664343931
0.000201688162745
0.00019986814248
0.000198181326774
0.000196607662675
0.000195130478446
0.000193736068526
0.000192413080188
0.000191151951338
0.000189944465547
0.000188783422022
0.00018766239782
0.000186575577709
0.00018551763121
0.000184483621519
0.000183468935562
0.000182469227907
0.000181480373684
0.000180498427318
0.000179519587217
0.000178540158539
0.00017755651834
0.000176565083616
0.000175562279507
0.000174544506203
0.000173508104951
0.000172449322554
0.000171364273646
0.000170248899945
0.000169098925536
0.000167909807119
0.000166676677994
0.000165394284441
0.000164056913132
0.000162658308329
0.000161191578147
0.000159649090213
0.000158022359233
0.000156301932603
0.000154477286135
0.000152536750666
0.000150467501743
0.000148255657599
0.000145886541518
0.000143345167295
0.000140616993007
0.000137688954039
0.000134550736448
0.000131196203969
0.000127624864894
0.000123843250361
0.000119866025118
0.000115716524787
0.000111426282384
0.000107033196493
0.000102578475849
9.8103149528e-05
9.36451752336e-05
8.92379057897e-05
8.49098770778e-05
8.06853279516e-05
7.65849439733e-05
7.26264665182e-05
6.88250212318e-05
6.51931653022e-05
6.17407018075e-05
5.84743431479e-05
5.53973550717e-05
5.25093464581e-05
4.98063436881e-05
4.72811996554e-05
4.49242792252e-05
4.27242877394e-05
4.06690932905e-05
3.87464281307e-05
3.69444112487e-05
3.52518859599e-05
3.3658599478e-05
3.21552649016e-05
3.07335456067e-05
2.93859946504e-05
2.81059725564e-05
2.6887558598e-05
2.57254644036e-05
2.46149544254e-05
2.35517751165e-05
2.25320931164e-05
2.15524419256e-05
2.06096761931e-05
1.97009326238e-05
1.88235965428e-05
1.79752732382e-05
1.7153763309e-05
1.63570413625e-05
1.55832374979e-05
1.48306211099e-05
1.40975866158e-05
1.3382640775e-05
1.26843913197e-05
1.2001536659e-05
1.1332856446e-05
1.06772028314e-05
1.00334922361e-05
9.40069750144e-06
8.77784027149e-06
8.16398348179e-06
7.55822381073e-06
6.95968394537e-06
6.36750445372e-06
5.78083494974e-06
5.1988239616e-06
4.62060633848e-06
4.04528575793e-06
3.47190726111e-06
2.89940943729e-06
2.32653619951e-06
1.75167368673e-06
1.17256754299e-06
5.85902248314e-07
8.12224424207e-08
0.000208490723602
0.000211109969332
0.000211927892842
0.000211151894933
0.000209513813444
0.000207530944248
0.000205491446085
0.000203527534523
0.00020168590988
0.000199972848146
0.00019837828541
0.000196887265259
0.000195484799358
0.000194157591605
0.000192894389503
0.000191685803861
0.000190523973042
0.000189402225876
0.000188314796167
0.000187256598595
0.000186223059406
0.00018520999073
0.000184213497543
0.000183229908152
0.000182255721136
0.000181287563587
0.000180322156797
0.000179356289302
0.000178386788243
0.000177410492405
0.000176424230193
0.000175424795815
0.000174408924457
0.000173373266139
0.000172314357632
0.000171228591736
0.000170112183084
0.000168961129477
0.000167771167552
0.000166537721313
0.0001652558418
0.000163920135914
0.000162524682252
0.000161062931961
0.00015952759327
0.00015791050013
0.000156202468831
0.000154393152676
0.000152470914688
0.000150422752478
0.000148234326999
0.000145890164
0.000143374105631
0.000140670078162
0.000137763201454
0.000134641201166
0.000131296022936
0.000127725523201
0.000123935118856
0.000119939234499
0.000115762191763
0.000111437910586
0.000107007809568
0.000102516971764
9.80096883973e-05
9.35259077205e-05
8.90996255992e-05
8.47590547174e-05
8.05276539175e-05
7.64252747946e-05
7.24689953393e-05
6.86735288681e-05
6.50512600965e-05
6.16119803429e-05
5.8362414069e-05
5.53056996929e-05
5.24410475167e-05
4.97637674024e-05
4.72657334118e-05
4.49362001921e-05
4.27627859037e-05
4.07324239991e-05
3.88321425344e-05
3.70496103203e-05
3.53734565384e-05
3.37934085701e-05
3.23003039998e-05
3.08860272035e-05
2.95434084894e-05
2.82661108867e-05
2.70485192595e-05
2.58856391699e-05
2.47730083483e-05
2.37066210753e-05
2.26828644758e-05
2.16984652303e-05
2.07504450851e-05
1.98360836749e-05
1.89528873312e-05
1.80985627838e-05
1.7270994828e-05
1.6468227226e-05
1.56884462222e-05
1.49299661978e-05
1.41912170501e-05
1.34707329837e-05
1.27671424324e-05
1.2079158897e-05
1.1405572497e-05
1.07452420789e-05
1.00970877228e-05
9.46008351508e-06
8.83325044367e-06
8.21564927573e-06
7.60637324284e-06
7.00454031713e-06
6.40928474612e-06
5.81974732078e-06
5.23506344587e-06
4.65434733066e-06
4.0766691643e-06
3.50101947041e-06
2.92625013525e-06
2.35097431875e-06
1.77339911555e-06
1.19106403023e-06
6.00485129532e-07
8.88884325896e-08
0.000203974241556
0.00020647599427
0.000207575051547
0.00020731622444
0.000206228281793
0.000204732386088
0.000203094250448
0.000201455573019
0.00019988023506
0.000198389849653
0.000196985609207
0.000195660153067
0.00019440345383
0.000193205468264
0.000192057158264
0.000190950745383
0.000189879638278
0.000188838245475
0.000187821769688
0.000186826022581
0.000185847271833
0.000184882120501
0.00018392741415
0.000182980170092
0.000182037523432
0.000181096685471
0.000180154911156
0.00017920947395
0.000178257641535
0.000177296651851
0.000176323696338
0.000175335900609
0.000174330304637
0.000173303841662
0.000172253315128
0.000171175372928
0.000170066478038
0.000168922874494
0.000167740547349
0.000166515174926
0.000165242071243
0.000163916116019
0.000162531669184
0.000161082466539
0.000159561493365
0.000157960833945
0.000156271498031
0.000154483231448
0.000152584329012
0.000150561484935
0.000148399739012
0.00014608260215
0.000143592462355
0.000140911365342
0.000138022216255
0.000134910362484
0.000131565431845
0.000127983278713
0.000124167942778
0.000120133518635
0.000115905558362
0.000111521110196
0.000107026331767
0.000102471569129
9.79055057556e-05
9.33707047657e-05
8.89019693386e-05
8.45271156912e-05
8.02687249721e-05
7.61457934894e-05
7.21748016501e-05
6.83701808803e-05
6.47443164802e-05
6.13071800036e-05
5.8065677705e-05
5.50229118875e-05
5.21776600999e-05
4.95243439067e-05
4.70535776734e-05
4.47531699395e-05
4.2609316493e-05
4.06077210671e-05
3.87344699769e-05
3.69766014681e-05
3.5322397178e-05
3.37614652643e-05
3.22846909295e-05
3.08841167691e-05
2.95527963008e-05
2.82846467889e-05
2.70743148115e-05
2.59170599015e-05
2.48086569897e-05
2.37453160995e-05
2.27236168647e-05
2.17404552987e-05
2.07930004672e-05
1.98786590563e-05
1.89950461959e-05
1.81399612253e-05
1.73113673647e-05
1.65073744797e-05
1.57262243032e-05
1.49662776134e-05
1.42260029746e-05
1.35039667238e-05
1.27988239507e-05
1.21093102617e-05
1.14342341507e-05
1.07724698278e-05
1.01229503636e-05
9.48466101855e-06
8.85663261693e-06
8.23793480507e-06
7.62766898868e-06
7.02496066151e-06
6.42895068353e-06
5.83878479844e-06
5.25360019431e-06
4.67250706024e-06
4.09456160382e-06
3.51872450416e-06
2.94379488523e-06
2.36830475312e-06
1.79035457772e-06
1.2073739733e-06
6.15812924058e-07
9.89072664479e-08
0.00020029357138
0.000202654269884
0.000203910427352
0.000204015118117
0.000203349121403
0.00020224854321
0.000200948365514
0.000199589005777
0.000198243954304
0.000196946005537
0.000195705703074
0.000194522568072
0.000193391340759
0.000192305201089
0.000191257295817
0.000190241369336
0.000189251946781
0.00018828431048
0.000187334394021
0.000186398654852
0.000185473952946
0.000184557446071
0.000183646503943
0.000182738639854
0.000181831457002
0.000180922606472
0.000180009755277
0.000179090560192
0.000178162644779
0.000177223577157
0.000176270854562
0.000175301886367
0.000174313976858
0.000173304307002
0.00017226991444
0.000171207670925
0.00017011425625
0.000168986127535
0.000167819482388
0.000166610214047
0.000165353856008
0.00016404551296
0.000162679774021
0.000161250603491
0.000159751203866
0.000158173846281
0.000156509665819
0.000154748424982
0.000152878260194
0.00015088544614
0.000148754242159
0.000146466920873
0.000144004109926
0.000141345579659
0.000138471554379
0.000135364506121
0.000132011262072
0.000128405233504
0.000124548705385
0.000120455217204
0.000116151709627
0.000111679187391
0.00010709007757
0.000102441776118
9.77887495938e-05
9.31768286659e-05
8.86416530442e-05
8.42104059726e-05
7.99045924202e-05
7.57422976827e-05
7.17394725939e-05
6.79104120469e-05
6.42676985467e-05
6.08217121121e-05
5.75797523543e-05
5.4545003654e-05
5.17157694956e-05
4.90853661449e-05
4.66427974304e-05
4.43740165926e-05
4.22634032279e-05
4.02951005853e-05
3.84540020429e-05
3.67263373398e-05
3.50999188311e-05
3.3564151509e-05
3.21099071108e-05
3.07293380784e-05
2.94156795043e-05
2.81630650112e-05
2.69663676083e-05
2.58210679252e-05
2.4723147845e-05
2.36690058458e-05
2.26553900061e-05
2.16793449993e-05
2.07381699554e-05
1.98293847084e-05
1.89507024701e-05
1.81000074481e-05
1.72753362594e-05
1.64748622923e-05
1.56968823495e-05
1.49398050875e-05
1.42021408565e-05
1.34824926556e-05
1.27795479568e-05
1.20920712164e-05
1.14188969082e-05
1.07589229467e-05
1.01111043666e-05
9.47444713679e-06
8.84800195951e-06
8.23085788696e-06
7.62213551123e-06
7.02097938786e-06
6.42654915525e-06
5.83800850645e-06
5.25451063037e-06
4.67517786752e-06
4.09907189415e-06
3.52514855883e-06
2.95218841671e-06
2.37869054623e-06
1.80271539713e-06
1.22166671838e-06
6.32017800912e-07
1.11337226595e-07
0.000197257426799
0.000199473455496
0.000200809251618
0.000201168420994
0.000200825364082
0.000200045060809
0.000199029637567
0.000197911513767
0.000196767882794
0.000195638897156
0.000194542375028
0.000193483751424
0.000192462163452
0.000191473916859
0.000190514339816
0.000189578702124
0.000188662618331
0.000187762179535
0.000186873951731
0.000185994915625
0.000185122387
0.000184253936808
0.000183387319352
0.000182520411321
0.00018165116163
0.000180777550728
0.000179897559733
0.000179009143722
0.000178110207993
0.00017719858746
0.000176272030805
0.000175328184329
0.000174364575792
0.000173378597497
0.000172367487848
0.000171328310567
0.000170257930601
0.000169152985507
0.000168009850767
0.000166824596936
0.000165592935815
0.00016431015193
0.000162971014385
0.000161569662885
0.000160099460465
0.000158552804921
0.000156920892091
0.000155193429055
0.000153358306993
0.00015140126581
0.000149305619123
0.00014705215764
0.00014461939879
0.000141984368809
0.000139124043305
0.000136017407187
0.000132647893564
0.000129005918699
0.00012509149048
0.000120917171386
0.000116511291037
0.000111919731344
0.000107203179249
0.000102428478916
9.76576591438e-05
9.29405054871e-05
8.8313331838e-05
8.3802248246e-05
7.94273946946e-05
7.52058886792e-05
7.11532509607e-05
6.72838134193e-05
6.36105785596e-05
6.01446031011e-05
5.68938397797e-05
5.38617000647e-05
5.10459491801e-05
4.8438504139e-05
4.60262976804e-05
4.37929078904e-05
4.17204174926e-05
3.97910250206e-05
3.7988156389e-05
3.62970524547e-05
3.47049436053e-05
3.32009614154e-05
3.177591748e-05
3.0422039055e-05
2.91327129446e-05
2.7902261506e-05
2.67257578902e-05
2.5598878919e-05
2.45177903284e-05
2.34790581947e-05
2.24795807808e-05
2.15165359467e-05
2.05873402709e-05
1.96896169194e-05
1.88211700441e-05
1.79799640586e-05
1.71641065821e-05
1.63718341566e-05