/*--------------------------------*- C++ -*----------------------------------*\
  =========                 |
  \\      /  F ield         | OpenFOAM: The Open Source CFD Toolbox
   \\    /   O peration     | Website:  https://openfoam.org
    \\  /    A nd           | Version:  7
     \\/     M anipulation  |
\*---------------------------------------------------------------------------*/
FoamFile
{
    version     2.0;
    format      ascii;
    class       surfaceScalarField;
    location    "2820";
    object      phi;
}
// * * * * * * * * * * * * * * * * * * * * * * * * * * * * * * * * * * * * * //

dimensions      [0 3 -1 0 0 0 0];

internalField   nonuniform List<scalar> 
16192
(
6.92940053908e-10
2.44559943314e-10
4.93598004222e-10
1.99342052595e-10
3.64862474799e-10
1.28735532969e-10
2.82261147654e-10
8.26013321351e-11
2.27599226389e-10
5.46619281565e-11
1.89935838598e-10
3.76633963025e-11
1.6293089162e-10
2.70049568524e-11
1.42873710651e-10
2.0057192001e-11
1.27531440765e-10
1.53422819172e-11
1.15512604913e-10
1.20188487503e-11
1.05917364713e-10
9.59525388579e-12
9.81424988744e-11
7.77488025637e-12
9.17699596832e-11
6.37255432887e-12
8.6501295546e-11
5.26867999662e-12
8.21178397404e-11
4.38347242797e-12
7.84557745439e-11
3.66208262727e-12
7.53900357508e-11
3.06575711371e-12
7.28236260552e-11
2.56642898531e-12
7.06803328652e-11
2.14331356223e-12
6.88996470619e-11
1.78070736595e-12
6.74331410511e-11
1.46652890516e-12
6.62418369982e-11
1.1913284131e-12
6.52942617823e-11
9.47601209458e-13
6.45649875779e-11
7.29301991841e-13
6.40335224456e-11
5.31494907181e-13
6.36834572874e-11
3.50097107947e-13
6.3501803721e-11
1.81687911136e-13
6.34784759056e-11
2.33647706659e-14
6.36058824195e-11
-1.27366701593e-13
6.38786021361e-11
-2.72676803043e-13
6.42931252979e-11
-4.14476875349e-13
6.48476455612e-11
-5.5447033249e-13
6.5541890617e-11
-6.94191187042e-13
6.63769808194e-11
-8.35032101792e-13
6.73553065544e-11
-9.78263095165e-13
6.84804153401e-11
-1.12504130121e-12
6.97568994995e-11
-1.27641152526e-12
7.11902744086e-11
-1.43329682976e-12
7.27868360794e-11
-1.59647787275e-12
7.45534851735e-11
-1.76655932866e-12
7.6497502522e-11
-1.94392142194e-12
7.86262592931e-11
-2.12865454225e-12
8.09468430873e-11
-2.32047522326e-12
8.34655805843e-11
-2.51862263845e-12
8.61874380292e-11
-2.72173651523e-12
8.91152848267e-11
-2.92772016017e-12
9.22490130578e-11
-3.13359647812e-12
9.55845194286e-11
-3.3353702909e-12
9.91125755721e-11
-3.52791680423e-12
1.02817639462e-10
-3.70492257301e-12
1.06676691739e-10
-3.85891054355e-12
1.10658214429e-10
-3.98138226319e-12
1.1472145797e-10
-4.06310634426e-12
1.18816160722e-10
-4.09457074393e-12
1.22882883179e-10
-4.06659764986e-12
1.26854093494e-10
-3.97109460304e-12
1.30656085147e-10
-3.80188685473e-12
1.34211723153e-10
-3.55554572224e-12
1.37443901034e-10
-3.2320995961e-12
1.40279458322e-10
-2.83549424353e-12
1.42653176379e-10
-2.37367135069e-12
1.44511381896e-10
-1.85817591554e-12
1.45814687757e-10
-1.30329382726e-12
1.46539524629e-10
-7.24842320651e-13
1.46678343236e-10
-1.3884094975e-13
1.46238629554e-10
4.39675660083e-13
1.45241084046e-10
9.97493413423e-13
1.43717396217e-10
1.52362358064e-12
1.41707980563e-10
2.00934111745e-12
1.39259918383e-10
2.44797910926e-12
1.36425199888e-10
2.83462828431e-12
1.33259240306e-10
3.16586336805e-12
1.29819573601e-10
3.43956530022e-12
1.26164612912e-10
3.65485480957e-12
1.22352393589e-10
3.81210957089e-12
1.18439270127e-10
3.91301054244e-12
1.14478599691e-10
3.96055509524e-12
1.10519496573e-10
3.95898626136e-12
1.06605765533e-10
3.91361361166e-12
1.02775115029e-10
3.83053353779e-12
9.90587159524e-11
3.71628355145e-12
9.54811233057e-11
3.57747952698e-12
9.20605295496e-11
3.42048386245e-12
8.880928325e-11
3.25114036537e-12
8.57345879245e-11
3.07459390643e-12
8.28392953802e-11
2.89519608703e-12
8.0122718513e-11
2.71648565308e-12
7.7581406856e-11
2.5412258719e-12
7.52098470911e-11
2.37147946611e-12
7.30010685476e-11
2.20870371971e-12
7.0947147093e-11
2.05385200773e-12
6.90396106997e-11
1.90747218207e-12
6.72697556057e-11
1.76979592709e-12
6.56288850974e-11
1.64081616915e-12
6.41084836555e-11
1.52035169257e-12
6.27003387909e-11
1.40809945255e-12
6.13966216378e-11
1.30367582523e-12
6.01899357839e-11
1.20664834695e-12
5.90733422661e-11
1.11655958293e-12
5.80403670135e-11
1.03294463154e-12
5.70849958287e-11
9.5534364444e-13
5.62016606403e-11
8.83310484613e-13
5.53852200493e-11
8.16418512176e-13
5.46309361337e-11
7.54264236505e-13
5.39344491641e-11
6.96469502823e-13
5.32917510314e-11
6.42682673772e-13
5.26991581496e-11
5.92579267784e-13
5.21532838418e-11
5.45862355378e-13
5.16510103288e-11
5.02263082276e-13
5.11894596811e-11
4.61541574856e-13
5.07659632286e-11
4.23488618703e-13
5.03780280375e-11
3.8792844956e-13
5.00232990628e-11
3.54723223737e-13
4.96995143715e-11
3.23779797551e-13
4.94044503936e-11
2.9505985203e-13
4.91358521799e-11
2.68594730204e-13
4.88913420484e-11
2.44507206101e-13
4.86682960753e-11
2.23043480324e-13
4.84636730791e-11
2.04620846243e-13
4.82737713042e-11
1.89899829421e-13
4.80938736928e-11
1.798957604e-13
4.79177169521e-11
1.76154817404e-13
4.7736679454e-11
1.81035357306e-13
4.75385260071e-11
1.98150888674e-13
4.7305517296e-11
2.33005604126e-13
4.70120032359e-11
2.93509751839e-13
4.66236803853e-11
3.88324855606e-13
4.98194749471e-13
9.53426401233e-10
2.28633538309e-10
8.59662975391e-10
2.93105478272e-10
7.45079488986e-10
2.43319018157e-10
6.41816947369e-10
1.85863872438e-10
5.56505168629e-10
1.39973705954e-10
4.87946803743e-10
1.06221760456e-10
4.33125030456e-10
8.18267295604e-11
3.89091650947e-10
6.4090571068e-11
3.53436664712e-10
5.09972678424e-11
3.24306026383e-10
4.11494868919e-11
3.00301869567e-10
3.35994106422e-11
2.8037285968e-10
2.77038902154e-11
2.63723611741e-10
2.30218024917e-11
2.49746498096e-10
1.92457940415e-11
2.37972124151e-10
1.61578469938e-11
2.28033785071e-10
1.36004225954e-11
2.19641956016e-10
1.1457587395e-11
2.12565868769e-10
9.64251787019e-12
2.06620079263e-10
8.08910521252e-12
2.01654564798e-10
6.74622458183e-12
1.97547337949e-10
5.57375923035e-12
1.94198873188e-10
4.53979749958e-12
1.91527854125e-10
3.61862559067e-12
1.89467894088e-10
2.7892684846e-12
1.87964982676e-10
2.03441407481e-12
1.86975479793e-10
1.33960920713e-12
1.86464527053e-10
6.92651503541e-13
1.8640478011e-10
8.31243745125e-14
1.86775389606e-10
-4.97961546282e-13
1.87561174344e-10
-1.05844472784e-12
1.88751944228e-10
-1.60522760739e-12
1.90341938824e-10
-2.14444327335e-12
1.92329351984e-10
-2.68158003199e-12
1.94715916848e-10
-3.221569851e-12
1.97506527756e-10
-3.76884396216e-12
2.00708876193e-10
-4.32735667001e-12
2.04333077429e-10
-4.90057658971e-12
2.0839126291e-10
-5.4914429873e-12
2.12897111104e-10
-6.10228358156e-12
2.17865286618e-10
-6.73468921782e-12
2.23310754252e-10
-7.38934036013e-12
2.29247932145e-10
-8.06578077539e-12
2.35689646817e-10
-8.76213543616e-12
2.42645854513e-10
-9.47477327843e-12
2.50122098911e-10
-1.01979215326e-11
2.58117687889e-10
-1.09232477449e-11
2.66623592941e-10
-1.16394385108e-11
2.75620107235e-10
-1.23318203703e-11
2.85074342038e-10
-1.29820867084e-11
2.94937696794e-10
-1.35682122965e-11
3.05143500175e-10
-1.40646493825e-11
3.15605081668e-10
-1.44429003554e-11
3.26214582407e-10
-1.46725455276e-11
3.36842837452e-10
-1.4722766769e-11
3.47340643678e-10
-1.45643480893e-11
3.57541658848e-10
-1.41720578564e-11
3.67267051039e-10
-1.35272315979e-11
3.76331836279e-10
-1.262028848e-11
3.84552612442e-10
-1.14528386898e-11
3.91756142335e-10
-1.00389928331e-11
3.97787999753e-10
-8.40550354696e-12
4.02520342558e-10
-6.59049981269e-12
4.05857897106e-10
-4.64083596146e-12
4.07741480463e-10
-2.6084198059e-12
4.08148814715e-10
-5.46175812712e-13
4.07092876938e-10
1.49560658597e-12
4.04618418997e-10
3.47193862064e-12
4.00797456494e-10
5.34456793462e-12
3.95724440272e-10
7.08233424113e-12
3.89511612913e-10
8.66077890213e-12
3.8228478851e-10
1.00614210668e-11
3.7417957122e-10
1.12710453894e-11
3.65337891481e-10
1.22812064752e-11
3.55904698327e-10
1.30880064812e-11
3.46024683943e-10
1.36920799249e-11
3.3583900736e-10
1.40986409782e-11
3.25482091038e-10
1.43174235965e-11
3.15078653589e-10
1.43623747229e-11
3.04741183897e-10
1.42510336527e-11
2.94568047336e-10
1.4003620327e-11
2.846423495e-10
1.36419320022e-11
2.75031591635e-10
1.31881889084e-11
2.65788059241e-10
1.26639691297e-11
2.5694981473e-10
1.20893395424e-11
2.48542125127e-10
1.14822403333e-11
2.40579148649e-10
1.08581318785e-11
2.33065720568e-10
1.02298757957e-11
2.25999110696e-10
9.60780077275e-12
2.19370661226e-10
8.99989708282e-12
2.13167248957e-10
8.41208736724e-12
2.07372544929e-10
7.84853069673e-12
2.01968066763e-10
7.31192830956e-12
1.96934033692e-10
6.80381022657e-12
1.9225004336e-10
6.32479093444e-12
1.87895593586e-10
5.87478900401e-12
1.83850473433e-10
5.45321012227e-12
1.80095046809e-10
5.05909579283e-12
1.76610449643e-10
4.69124151431e-12
1.73378718907e-10
4.34828879428e-12
1.70382868848e-10
4.02879543969e-12
1.67606927117e-10
3.73128820011e-12
1.65035940848e-10
3.4543014395e-12
1.62655960773e-10
3.19640493105e-12
1.60454009357e-10
2.95622344005e-12
1.5841803765e-10
2.73245024352e-12
1.56536873965e-10
2.52385643391e-12
1.54800166679e-10
2.32929748457e-12
1.53198322218e-10
2.14771841315e-12
1.51722438728e-10
1.97815866692e-12
1.50364234849e-10
1.81975787278e-12
1.49115972518e-10
1.67176354557e-12
1.47970371543e-10
1.53354204274e-12
1.46920513074e-10
1.40459420407e-12
1.45959727592e-10
1.2845775479e-12
1.45081462016e-10
1.17333734471e-12
1.44279118483e-10
1.07094970358e-12
1.43545855818e-10
9.77780744442e-13
1.42874342163e-10
8.94567333216e-13
1.42256446068e-10
8.2252638462e-13
1.4168285319e-10
7.63501301266e-13
1.41142602682e-10
7.20153952094e-13
1.40622560013e-10
6.96204184849e-13
1.40106910116e-10
6.9669092103e-13
1.39576932193e-10
7.28133363152e-13
1.39011787493e-10
7.98153561499e-13
1.38392205218e-10
9.13094158936e-13
1.37712660201e-10
1.06786899557e-12
1.20915245578e-12
9.76225039442e-10
1.89908492759e-10
9.62937472392e-10
3.06393043356e-10
9.0592470699e-10
3.00331780509e-10
8.33344502443e-10
2.58444073644e-10
7.60194503399e-10
2.13123701773e-10
6.92892975751e-10
1.73523284816e-10
6.33518755319e-10
1.41200946582e-10
5.82183905135e-10
1.154254177e-10
5.38211734237e-10
9.49694350539e-11
5.00685657971e-10
7.86755593333e-11
4.68687679587e-10
6.55973850797e-11
4.41390202218e-10
5.50013635193e-11
4.18081549567e-10
4.63304509865e-11
3.98163502435e-10
3.91638369401e-11
3.81138559774e-10
3.31827853865e-11
3.66594765562e-10
2.81442125354e-11
3.54191316903e-10
2.38610318383e-11
3.43646061133e-10
2.01877695291e-11
3.34725074632e-10
1.70100877909e-11
3.27234153478e-10
1.42371420676e-11
3.2101193281e-10
1.17959765872e-11
3.15924343502e-10
9.62738394023e-12
3.11860147055e-10
7.68281973517e-12
3.08727331906e-10
5.92208199887e-12
3.06450195914e-10
4.31154923498e-12
3.04966974975e-10
2.82283023303e-12
3.04227906996e-10
1.43172063027e-12
3.04193642931e-10
1.17390771042e-13
3.04833934504e-10
-1.13824946353e-12
3.06126540096e-10
-2.35104521671e-12
3.08056303775e-10
-3.53498460804e-12
3.10614367366e-10
-4.70249850005e-12
3.13797480043e-10
-5.86468255398e-12
3.17607373353e-10
-7.03145112904e-12
3.22050171096e-10
-8.21162772593e-12
3.2713580353e-10
-9.41297312831e-12
3.32877394268e-10
-1.06421493307e-11
3.39290586137e-10
-1.19046148345e-11
3.46392769419e-10
-1.32044448496e-11
3.54202172807e-10
-1.4544068647e-11
3.62736774357e-10
-1.59239160997e-11
3.72012988052e-10
-1.73419669076e-11
3.8204408178e-10
-1.8793200002e-11
3.92838287169e-10
-2.02689480577e-11
4.04396571741e-10
-2.17561742506e-11
4.16710063046e-10
-2.32367061502e-11
4.29757144014e-10
-2.46864857877e-11
4.43500282374e-10
-2.60749244833e-11
4.57882713988e-10
-2.73644838245e-11
4.72825170626e-10
-2.85106344623e-11
4.88222919642e-10
-2.94623643002e-11
5.03943458532e-10
-3.01634058319e-11
5.19825263996e-10
-3.05543186381e-11
5.35678017679e-10
-3.05754894683e-11
5.51284698899e-10
-3.01710000423e-11
5.66405838658e-10
-2.92931703075e-11
5.80786061216e-10
-2.79074290629e-11
5.94162806302e-10
-2.59970108142e-11
6.06276835014e-10
-2.35668471442e-11
6.16883803682e-10
-2.06459437901e-11
6.25765888798e-10
-1.72875736286e-11
6.3274225302e-10
-1.35668517441e-11
6.3767716107e-10
-9.57573461211e-12
6.40484860392e-10
-5.4161126545e-12
6.41130893036e-10
-1.19220495542e-12
6.39630140834e-10
2.99635945488e-12
6.36042409763e-10
7.0596676801e-12
6.30466570663e-10
1.09204026147e-11
6.23034168188e-10
1.45147300659e-11
6.13903140878e-10
1.77917975413e-11
6.03251968109e-10
2.0712583228e-11
5.91274288532e-10
2.32487125327e-11
5.78173869337e-10
2.53816114407e-11
5.64159755861e-10
2.71021040438e-11
5.49441474564e-10
2.84103437093e-11
5.34224270933e-10
2.93158257033e-11
5.18704492828e-10
2.9837181601e-11
5.03065338205e-10
3.0001508364e-11
4.8747323487e-10
2.98431154131e-11
4.72075097676e-10
2.94017357229e-11
4.56996622422e-10
2.8720385558e-11
4.42341657755e-10
2.78431323404e-11
4.28192577472e-10
2.68130289434e-11
4.14611485287e-10
2.56704123421e-11
4.01642032766e-10
2.44516748062e-11
3.89311620838e-10
2.31885273468e-11
3.77633774817e-10
2.1907707139e-11
3.66610521811e-10
2.06310410583e-11
3.5623464461e-10
1.93757636479e-11
3.4649173049e-10
1.81549930349e-11
3.37361970845e-10
1.6978284133e-11
3.28821696827e-10
1.58521983898e-11
3.20844656694e-10
1.47808486899e-11
3.13403053727e-10
1.376639446e-11
3.06468370805e-10
1.28094746537e-11
3.00012010572e-10
1.19095751588e-11
2.94005780175e-10
1.10653329638e-11
2.88422247624e-10
1.02747826728e-11
2.83234994098e-10
9.53555262628e-12
2.78418783143e-10
8.84501822971e-12
2.73949664621e-10
8.20041993455e-12
2.69805027907e-10
7.59895255791e-12
2.65963616335e-10
7.03783194163e-12
2.62405512071e-10
6.51434398329e-12
2.59112098851e-10
6.02588043199e-12
2.56066007741e-10
5.56996501209e-12
2.53251050016e-10
5.14427303461e-12
2.50652139371e-10
4.74664706343e-12
2.48255205023e-10
4.37511106957e-12
2.46047095675e-10
4.02788516198e-12
2.44015473828e-10
3.70340310961e-12
2.42148698448e-10
3.40033476669e-12
2.4043569364e-10
3.11761588796e-12
2.38865799522e-10
2.85448794341e-12
2.37428601351e-10
2.61055111498e-12
2.36113731984e-10
2.38583387527e-12
2.34910643691e-10
2.18088298383e-12
2.33808346745e-10
1.99687726278e-12
2.32795118089e-10
1.83576700963e-12
2.31858194581e-10
1.70043567146e-12
2.30983490518e-10
1.59486773022e-12
2.3015542769e-10
1.52427550369e-12
2.29357062262e-10
1.49506359513e-12
2.28570871827e-10
1.51432973224e-12
2.27780875245e-10
1.58815470703e-12
2.26977230953e-10
1.71674163564e-12
2.26163633521e-10
1.88146330769e-12
2.01384974851e-12
9.71730443944e-10
1.55678040192e-10
9.86515972309e-10
2.91607512105e-10
9.67783574754e-10
3.19064174247e-10
9.27150722404e-10
2.99076921848e-10
8.76477928381e-10
2.6379649176e-10
8.23296287312e-10
2.26704921759e-10
7.71765382665e-10
1.92731846923e-10
7.239273324e-10
1.63263463441e-10
6.80603415241e-10
1.38293347446e-10
6.41950479352e-10
1.173284902e-10
6.07786633007e-10
9.97612261431e-11
5.77775032594e-10
8.5012958392e-11
5.51524229707e-10
7.25812480833e-11
5.28640742885e-10
6.20473177371e-11
5.08754839094e-10
5.30686829418e-11
4.91531614701e-10
4.53674305135e-11
4.76674238747e-10
3.87184012406e-11
4.6392320323e-10
3.29387984074e-11
4.53053702318e-10
2.78795820382e-11
4.43872287421e-10
2.34185503422e-11
4.36213398164e-10
1.94548593467e-11
4.29936065552e-10
1.59047102666e-11
4.24920917666e-10
1.26979616451e-11
4.21067529418e-10
9.77546468539e-12
4.18292112393e-10
7.08696122689e-12
4.16525518866e-10
4.58941937318e-12
4.15711525033e-10
2.24571084459e-12
4.15805355894e-10
2.35571844234e-14
4.16772414387e-10
-2.10530966266e-12
4.18587178345e-10
-4.16580973665e-12
4.21232236136e-10
-6.18004169923e-12
4.24697427528e-10
-8.16768781387e-12
4.28979059544e-10
-1.01463110118e-11
4.34079167439e-10
-1.21315538918e-11
4.40004790324e-10
-1.41372438277e-11
4.46767229608e-10
-1.6175403917e-11
4.54381256225e-10
-1.82561656968e-11
4.62864229807e-10
-2.03875763878e-11
4.72235089753e-10
-2.25752909913e-11
4.82513174932e-10
-2.48221382626e-11
4.93716826078e-10
-2.71275499726e-11
5.05861723944e-10
-2.94868458517e-11
5.18958917791e-10
-3.18903733701e-11
5.33012505173e-10
-3.43225135062e-11
5.48016936707e-10
-3.67605825293e-11
5.63953941976e-10
-3.91736869852e-11
5.8078910687e-10
-4.15216252428e-11
5.98468181742e-10
-4.37539730994e-11
6.16913264013e-10
-4.58095392464e-11
6.36019077672e-10
-4.76164209225e-11
6.55649658958e-10
-4.90929183194e-11
6.75635842112e-10
-5.01495619512e-11
6.95774003611e-10
-5.0692453661e-11
7.15826547782e-10
-5.06280080405e-11
7.3552457978e-10
-4.98690076275e-11
7.54573100356e-10
-4.83416679134e-11
7.72658865637e-10
-4.59931730254e-11
7.89460790947e-10
-4.27989165937e-11
8.04662450862e-10
-3.87684894166e-11
8.17965859627e-10
-3.39493368736e-11
8.2910535298e-10
-2.84270533626e-11
8.37860134718e-10
-2.23216220548e-11
8.44064041131e-10
-1.57796319421e-11
8.47611427273e-10
-8.96349216149e-12
8.48458758947e-10
-2.03953245337e-12
8.46622289075e-10
4.83283118195e-12
8.42172817786e-10
1.15091387666e-11
8.35228772336e-10
1.78644461106e-11
8.25948689432e-10
2.37948095324e-11
8.14523830876e-10
2.92166513686e-11
8.01171269142e-10
3.40651390317e-11
7.86127470123e-10
3.82925044419e-11
7.69642224324e-10
4.1866848924e-11
7.51972732055e-10
4.47715867805e-11
7.33377707009e-10
4.70053580281e-11
7.14111492767e-10
4.85820281206e-11
6.94418341392e-10
4.9530320214e-11
6.74527130843e-10
4.98927054507e-11
6.54646853388e-10
4.97233789862e-11
6.3496317383e-10
4.90854012973e-11
6.15636247545e-10
4.80472980809e-11
5.96799842134e-10
4.66795245339e-11
5.78561664327e-10
4.50511943755e-11
5.61004687824e-10
4.32273775892e-11
5.44189221034e-10
4.12671316962e-11
5.28155444371e-10
3.92222956747e-11
5.12926172157e-10
3.71369727465e-11
4.98509639891e-10
3.50475685846e-11
4.84902169885e-10
3.29832308745e-11
4.72090618455e-10
3.09665437121e-11
4.60054550172e-10
2.901435372e-11
4.48768117702e-10
2.71386342239e-11
4.3820164921e-10
2.53473225745e-11
4.28322960721e-10
2.3645090318e-11
4.19098419661e-10
2.20340249794e-11
4.10493789959e-10
2.05142159241e-11
4.02474889863e-10
1.90842457993e-11
3.95008092304e-10
1.77415945152e-11
3.88060695073e-10
1.6482965537e-11
3.81601184903e-10
1.53045453195e-11
3.75599416206e-10
1.42022066273e-11
3.70026721904e-10
1.31716657655e-11
3.64855970791e-10
1.22086027038e-11
3.60061583064e-10
1.13087519338e-11
3.55619513335e-10
1.04679707966e-11
3.51507208221e-10
9.68229101413e-12
3.47703543924e-10
8.94795832063e-12
3.4418874753e-10
8.26146439832e-12
3.40944304535e-10
7.61957482052e-12
3.37952853797e-10
7.01935633814e-12
3.35198070254e-10
6.45820665284e-12
3.32664534745e-10
5.93388972164e-12
3.30337589757e-10
5.44457966314e-12
3.28203179375e-10
4.98891635293e-12
3.26247671899e-10
4.56607577113e-12
3.24457664212e-10
4.17585780705e-12
3.22819769203e-10
3.81879322715e-12
3.21320391589e-10
3.49626902305e-12
3.1994550558e-10
3.2106660102e-12
3.18680461652e-10
2.96549136137e-12
3.17509873807e-10
2.7654660426e-12
3.16417677603e-10
2.61648080389e-12
3.15387509779e-10
2.52523908087e-12
3.14403640444e-10
2.49820523618e-12
3.13452752263e-10
2.53904755907e-12
3.12526630639e-10
2.64286650975e-12
3.11624122396e-10
2.7839694981e-12
2.89454408327e-12
9.6389094004e-10
1.29287089341e-10
9.87488583574e-10
2.68009865181e-10
9.89321289234e-10
3.17231464441e-10
9.71478655011e-10
3.16919551432e-10
9.40910644722e-10
2.94364497427e-10
9.03667535296e-10
2.63948026404e-10
8.6394799602e-10
2.32451381162e-10
8.24402768911e-10
2.02808685203e-10
7.86591029234e-10
1.76105081432e-10
7.51353901563e-10
1.52565611807e-10
7.19079054049e-10
1.32036067206e-10
6.8987754372e-10
1.14214461869e-10
6.63698411345e-10
9.87603732059e-11
6.40401397068e-10
8.53443243625e-11
6.1980224298e-10
7.36678289969e-11
6.01700349593e-10
6.34693155069e-11
5.85895210432e-10
5.45235316805e-11
5.72195786045e-10
4.66382137876e-11
5.60425486472e-10
3.96498723721e-11
5.50424461751e-10
3.34195656528e-11
5.42050276074e-10
2.78290355171e-11
5.35177641869e-10
2.27773349496e-11
5.29697635578e-10
1.81779584934e-11
5.25516654995e-10
1.39564360037e-11
5.22555275378e-10
1.00483318716e-11
5.20747096389e-10
6.39758979495e-12
5.20037630824e-10
2.95516837496e-12
5.20383259867e-10
-3.2207923662e-13
5.21750261657e-10
-3.47231804157e-12
5.24113910447e-10
-6.52946419615e-12
5.27457641141e-10
-9.52377701394e-12
5.31772260538e-10
-1.24823106553e-11
5.37055187172e-10
-1.54292397976e-11
5.43309698014e-10
-1.838606548e-11
5.5054415695e-10
-2.13717020071e-11
5.58771196673e-10
-2.44024412938e-11
5.68006822004e-10
-2.74917870228e-11
5.7826939896e-10
-3.06501476262e-11
5.89578490054e-10
-3.38843746224e-11
6.01953492835e-10
-3.71971318201e-11
6.15412035968e-10
-4.05860821276e-11
6.29968086209e-10
-4.40428833844e-11
6.45629721544e-10
-4.7551994314e-11
6.62396532373e-10
-5.10893083233e-11
6.80256625977e-10
-5.46206585892e-11
6.99183232555e-10
-5.8100274589e-11
7.19130946564e-10
-6.14693189814e-11
7.40031688192e-10
-6.46546933139e-11
7.61790537886e-10
-6.75683665775e-11
7.84281681688e-10
-7.01075416334e-11
8.07344801041e-10
-7.2156014126e-11
8.30782336689e-10
-7.35870738937e-11
8.54358132957e-10
-7.42682264067e-11
8.77798002483e-10
-7.40678545626e-11
9.00792717158e-10
-7.28637001552e-11
9.23003812915e-10
-7.0552742656e-11
9.44072389871e-10
-6.70617303281e-11
9.63630804026e-10
-6.2357312591e-11
9.81316790541e-10
-5.64544593667e-11
9.96789141656e-10
-4.94216730726e-11
1.00974361892e-09
-4.13815174741e-11
1.01992742156e-09
-3.25054134547e-11
1.02715045686e-09
-2.30026581179e-11
1.03129205048e-09
-1.31050789271e-11
1.03230258342e-09
-3.05006083815e-12
1.03020055809e-09
6.93485894245e-12
1.02506636818e-09
1.66433293058e-11
1.01703429617e-09
2.58965173442e-11
1.00628401431e-09
3.45450895275e-11
9.93032384033e-10
4.24682789317e-11
9.7752586065e-10
4.95716589178e-11
9.60033461088e-10
5.5784899727e-11
9.4084007423e-10
6.10602306533e-11
9.20239864222e-10
6.53717907563e-11
8.98529601521e-10
6.87156137743e-11
8.76001920211e-10
7.11097016261e-11
8.52938691925e-10
7.25935399879e-11
8.29604863573e-10
7.32265248169e-11
8.06243171298e-10
7.30850620769e-11
7.83070095762e-10
7.2258467773e-11
7.60273284073e-10
7.08441011542e-11
7.38010482185e-10
6.89423185686e-11
7.16409851487e-10
6.66518182707e-11
6.95571422471e-10
6.40658011126e-11
6.755693795e-10
6.1269170699e-11
6.56454867541e-10
5.83368053709e-11
6.38259046864e-10
5.53327930029e-11
6.20996176941e-10
5.23104400318e-11
6.04666570688e-10
4.93128406587e-11
5.89259315509e-10
4.63738044602e-11
5.74754703169e-10
4.35189736666e-11
5.61126345297e-10
4.07670017075e-11
5.48342975783e-10
3.81307036498e-11
5.36369957248e-10
3.56181222793e-11
5.2517051807e-10
3.32334793472e-11
5.14706750824e-10
3.09779999992e-11
5.04940404118e-10
2.88506108382e-11
4.95833498681e-10
2.68485196348e-11
4.87348796239e-10
2.49676888548e-11
4.79450146623e-10
2.32032168327e-11
4.72102735364e-10
2.15496406385e-11
4.65273250678e-10
2.0001173882e-11
4.589299858e-10
1.85518915248e-11
4.53042889708e-10
1.71958723071e-11
4.47583576929e-10
1.59273080383e-11
4.42525304781e-10
1.47405876431e-11
4.37842924684e-10
1.36303627737e-11
4.33512812367e-10
1.2591600798e-11
4.29512780596e-10
1.16196302747e-11
4.25821976689e-10
1.07101833975e-11
4.22420766327e-10
9.85943952688e-12
4.19290604246e-10
9.06407356322e-12
4.16413892108e-10
8.32131271378e-12
4.13773823605e-10
7.62900482769e-12
4.11354217351e-10
6.98570097482e-12
4.09139339218e-10
6.39075378592e-12
4.07113718178e-10
5.84443094276e-12
4.05261963696e-10
5.34803893366e-12
4.03568599552e-10
4.90404427437e-12
4.02017939172e-10
4.51616448117e-12
4.00594042993e-10
4.1893735131e-12
3.99280818778e-10
3.92971478388e-12
3.98062348176e-10
3.74371785347e-12
3.96923528504e-10
3.63703142437e-12
3.95851034098e-10
3.61154683374e-12
3.94834166663e-10
3.65973730234e-12
3.93863582293e-10
3.75455191597e-12
3.83519736385e-12
9.57479359987e-10
1.09307716511e-10
9.82292681785e-10
2.43196539541e-10
9.94496637382e-10
3.05027504402e-10
9.91359493001e-10
3.20056690805e-10
9.76037948776e-10
3.09686036604e-10
9.52642741277e-10
2.87343228633e-10
9.24633010239e-10
2.60461106606e-10
8.94547890442e-10
2.3289379902e-10
8.64129733027e-10
2.06523232436e-10
8.34517156352e-10
1.82178181601e-10
8.06417134713e-10
1.60136081466e-10
7.80238077233e-10
1.40393511449e-10
7.56186950227e-10
1.22811491781e-10
7.34338100299e-10
1.0719316532e-10
7.14681154554e-10
9.33247652363e-11
6.97153919028e-10
8.09965410043e-11
6.81664706705e-10
7.00127334762e-11
6.68107300748e-10
6.01956087518e-11
6.56370828576e-10
5.13863331287e-11
6.46346143598e-10
4.34442388499e-11
6.37929826512e-10
3.62453405217e-11
6.31026576152e-10
2.96805730054e-11
6.25550520624e-10
2.36540015811e-11
6.21425812968e-10
1.80811311833e-11
6.18586759946e-10
1.28873724878e-11
6.16977652366e-10
8.00668515699e-12
6.16552409644e-10
3.3803991921e-12
6.17274112607e-10
-1.04379366003e-12
6.19114468016e-10
-5.31268433119e-12
6.22053235672e-10
-9.46824201147e-12
6.26077633493e-10
-1.35481841335e-11
6.31181719282e-10
-1.75864047405e-11
6.37365744789e-10
-2.16132724641e-11
6.4463547065e-10
-2.56557972309e-11
6.53001424934e-10
-2.97376607891e-11
6.6247808285e-10
-3.38791022037e-11
6.73082940215e-10
-3.80966457802e-11
6.84835448539e-10
-4.24026556519e-11
6.97755775011e-10
-4.68046990425e-11
7.11863346657e-10
-5.13046996047e-11
7.2717513462e-10
-5.58978643926e-11
7.43703633092e-10
-6.05713743048e-11
7.61454488474e-10
-6.53028403038e-11
7.80423740041e-10
-7.00585486793e-11
8.00594645357e-10
-7.4791550931e-11
8.21934085393e-10
-7.94396999569e-11
8.4438857852e-10
-8.39237958483e-11
8.67879983547e-10
-8.81460806217e-11
8.92301042207e-10
-9.19894062303e-11
9.17511002026e-10
-9.53174813741e-11
9.43331667247e-10
-9.79766584666e-11
9.69544337108e-10
-9.9799722389e-11
9.95888186482e-10
-1.00612054291e-10
1.02206069498e-09
-1.00240341825e-10
1.04772070653e-09
-9.85236910992e-11
1.07249458176e-09
-9.53265982377e-11
1.09598568779e-09
-9.05528178933e-11
1.11778716682e-09
-8.41587744899e-11
1.13749754376e-09
-7.61648205867e-11
1.1547382638e-09
-6.66623788389e-11
1.16917170249e-09
-5.58149434243e-11
1.18051768089e-09
-4.38513808304e-11
1.18856632375e-09
-3.10512919359e-11
1.19318552816e-09
-1.77242764899e-11
1.19432239902e-09
-4.18692708676e-12
1.19199934893e-09
9.25791163496e-12
1.18630654507e-09
2.23361341643e-11
1.17739262993e-09
3.48104323543e-11
1.16545523239e-09
4.64824862071e-11
1.15073210809e-09
5.71914018677e-11
1.13349313196e-09
6.68106332562e-11
1.11403297309e-09
7.5245056345e-11
1.09266411306e-09
8.24290878608e-11
1.06970986684e-09
8.83260334891e-11
1.04549718598e-09
9.29282904444e-11
1.02034923462e-09
9.6257648138e-11
9.94577974838e-10
9.83647944353e-11
9.68477198364e-10
9.93272956899e-11
9.42316522931e-10
9.92457319387e-11
9.1633680459e-10
9.82381809012e-11
8.90747234988e-10
9.64336662299e-11
8.65724163254e-10
9.39653867788e-11
8.4141147665e-10
9.0964502635e-11
8.17922237209e-10
8.75550398402e-11
7.95341214084e-10
8.38501948343e-11
7.73727959849e-10
7.99500624946e-11
7.53120129152e-10
7.59406285734e-11
7.33536806502e-10
7.18937696112e-11
7.14981679323e-10
6.7867976853e-11
6.97445953163e-10
6.390954172e-11
6.80910953977e-10
6.00539860005e-11
6.65350397675e-10
5.63275731456e-11
6.50732331138e-10
5.27487872217e-11
6.37020764094e-10
4.93297081476e-11
6.24177019759e-10
4.60772441666e-11
6.1216083602e-10
4.29942057377e-11
6.00931249689e-10
4.00802205242e-11
5.90447295097e-10
3.73324987704e-11
5.80668545906e-10
3.47464636013e-11
5.71555526034e-10
3.23162630932e-11
5.63070012389e-10
3.00351813247e-11
5.55175248942e-10
2.78959648442e-11
5.47836088697e-10
2.58910795815e-11
5.41019077375e-10
2.40129115691e-11
5.34692490177e-10
2.22539231399e-11
5.28826330858e-10
2.06067746731e-11
5.23392300462e-10
1.90644205439e-11
5.1836374144e-10
1.7620186717e-11
5.13715561575e-10
1.62678364344e-11
5.09424140913e-10
1.50016296307e-11
5.05467224104e-10
1.38163810765e-11
5.01823799788e-10
1.27075216885e-11
4.98473968355e-10
1.16711669337e-11
4.95398799278e-10
1.0704195584e-11
4.92580179641e-10
9.80434110801e-12
4.90000656387e-10
8.97029628063e-12
4.87643276614e-10
8.20182863566e-12
4.85491432999e-10
7.49989908046e-12
4.83528725655e-10
6.86676670135e-12
4.81738857318e-10
6.30604638461e-12
4.80105585641e-10
5.82265717303e-12
4.78612761907e-10
5.42254884448e-12
4.77244482069e-10
5.1120062998e-12
4.75985338461e-10
4.89618188115e-12
4.74820616468e-10
4.77627394121e-12
4.7373583869e-10
4.74451861765e-12
4.72714047439e-10
4.77634132086e-12
4.82099252009e-12
9.52844358918e-10
9.39633431244e-11
9.76179064717e-10
2.19861829702e-10
9.93171958908e-10
2.88034605784e-10
9.99126406771e-10
3.14102237791e-10
9.94683229415e-10
3.14129208674e-10
9.82260569831e-10
2.99765882647e-10
9.64406396451e-10
2.78315274031e-10
9.43256777804e-10
2.54043411263e-10
9.20444476296e-10
2.29335527038e-10
8.97156200192e-10
2.05466450254e-10
8.74223628271e-10
1.83068645353e-10
8.52209632602e-10
1.62407498471e-10
8.31479339519e-10
1.43541775579e-10
8.122553886e-10
1.26417106303e-10
7.94659655732e-10
1.10920487509e-10
7.78744212868e-10
9.69119726192e-11
7.64514028137e-10
8.42429063183e-11
7.51943450639e-10
7.27661737444e-11
7.40988074752e-10
6.23416959303e-11
7.31593198252e-10
5.28391017316e-11
7.23699785493e-10
4.41387391899e-11
7.17248612894e-10
3.61317311112e-11
7.12183096599e-10
2.87195030624e-11
7.08451169133e-10
2.18130436105e-11
7.06006472813e-10
1.53320536492e-11
7.04809064211e-10
9.20407859403e-12
7.04825769554e-10
3.36367880563e-12
7.06030290852e-10
-2.24832974774e-12
7.08403127193e-10
-7.68553506544e-12
7.11931367174e-10
-1.29964958451e-11
7.16608379235e-10
-1.82252093546e-11
7.22433413921e-10
-2.34114517428e-11
7.29411125134e-10
-2.85909949977e-11
7.37551008275e-10
-3.37956905477e-11
7.46866745681e-10
-3.90534070838e-11
7.57375443221e-10
-4.43878072093e-11
7.69096735872e-10
-4.98179443476e-11
7.82051734487e-10
-5.53576585242e-11
7.96261780629e-10
-6.10147476818e-11
8.11746971445e-10
-6.6789891078e-11
8.2852441247e-10
-7.26753041711e-11
8.4660615346e-10
-7.86531120998e-11
8.65996761919e-10
-8.46934435949e-11
8.86690492388e-10
-9.07522720064e-11
9.08668018924e-10
-9.67690683697e-11
9.31892716613e-10
-1.02664386641e-10
9.56306509369e-10