/*--------------------------------*- C++ -*----------------------------------*\
  =========                 |
  \\      /  F ield         | OpenFOAM: The Open Source CFD Toolbox
   \\    /   O peration     | Website:  https://openfoam.org
    \\  /    A nd           | Version:  7
     \\/     M anipulation  |
\*---------------------------------------------------------------------------*/
FoamFile
{
    version     2.0;
    format      ascii;
    class       volVectorField;
    location    "2820";
    object      U;
}
// * * * * * * * * * * * * * * * * * * * * * * * * * * * * * * * * * * * * * //

dimensions      [0 1 -1 0 0 0 0];

internalField   nonuniform List<vector> 
8192
(
(0.0010434816345 0.000156518363721 0)
(0.000759384357204 0.000127578913661 0)
(0.000549414706574 8.23907411002e-05 0)
(0.00041415911837 5.28648525665e-05 0)
(0.000326310639388 3.49836340202e-05 0)
(0.000267222441592 2.41045736336e-05 0)
(0.000225834707339 1.72831723855e-05 0)
(0.000195714945453 1.28366028806e-05 0)
(0.000173059296906 9.819060427e-06 0)
(0.000155548189233 7.6920632002e-06 0)
(0.000141715180561 6.1409624869e-06 0)
(0.000130598312696 4.97592336408e-06 0)
(0.000121543973477 4.07843477048e-06 0)
(0.000114093603347 3.37195519784e-06 0)
(0.000107916246583 2.8054223539e-06 0)
(0.000102767113142 2.34373288145e-06 0)
(9.84613185886e-05 1.96208455278e-06 0)
(9.48567435558e-05 1.6425145506e-06 0)
(9.18425337091e-05 1.37172067983e-06 0)
(8.93311871534e-05 1.13965271421e-06 0)
(8.72529843923e-05 9.38578499303e-07 0)
(8.55519859515e-05 7.62450184383e-07 0)
(8.41831032195e-05 6.06464774053e-07 0)
(8.31099195905e-05 4.66753274778e-07 0)
(8.2303046415e-05 3.40156740596e-07 0)
(8.17388670291e-05 2.24062149086e-07 0)
(8.13985670454e-05 1.16280263127e-07 0)
(8.1267378961e-05 1.49534532262e-08 0)
(8.13339893281e-05 -8.15146890198e-08 0)
(8.15900701156e-05 -1.74513153947e-07 0)
(8.20299055578e-05 -2.65265200223e-07 0)
(8.26500933498e-05 -3.54861012794e-07 0)
(8.34493031541e-05 -4.44282359707e-07 0)
(8.44280777193e-05 -5.34420545147e-07 0)
(8.55886639193e-05 -6.26088380906e-07 0)
(8.69348620125e-05 -7.20026432774e-07 0)
(8.84718814973e-05 -8.16903376167e-07 0)
(9.02061913011e-05 -9.17309971044e-07 0)
(9.21453507123e-05 -1.02174583856e-06 0)
(9.42978056019e-05 -1.13059797034e-06 0)
(9.66726321251e-05 -1.24410971004e-06 0)
(9.92792075617e-05 -1.36233890704e-06 0)
(0.000102126785523 -1.48510414288e-06 0)
(0.00010522395115 -1.61191848861e-06 0)
(0.000108577931913 -1.74191136975e-06 0)
(0.000112193742628 -1.87374090251e-06 0)
(0.000116073150646 -2.005501746e-06 0)
(0.000120213460791 -2.13463698618e-06 0)
(0.0001246061408 -2.25786675471e-06 0)
(0.000129235337622 -2.37115044673e-06 0)
(0.000134076371969 -2.46970274788e-06 0)
(0.000139094339948 -2.54808464844e-06 0)
(0.000144242990335 -2.60038806032e-06 0)
(0.000149464075963 -2.62052527611e-06 0)
(0.000154687388096 -2.60262249591e-06 0)
(0.00015983166507 -2.54150054594e-06 0)
(0.00016480651433 -2.43320758702e-06 0)
(0.000169515397312 -2.27554926223e-06 0)
(0.00017385959948 -2.0685437415e-06 0)
(0.000177742949988 -1.81471631586e-06 0)
(0.000181076886209 -1.51914966444e-06 0)
(0.000183785317296 -1.18923258595e-06 0)
(0.000185808684578 -8.34108049444e-07 0)
(0.000187106695927 -4.63899085217e-07 0)
(0.000187659435433 -8.88582078397e-08 0)
(0.000187466862585 2.81392422453e-07 0)
(0.000186547016704 6.38395784591e-07 0)
(0.000184933427368 9.75119091606e-07 0)
(0.000182672241139 1.28597831517e-06 0)
(0.000179819455326 1.56670662992e-06 0)
(0.000176438475694 1.81416210196e-06 0)
(0.000172598041724 2.02615255555e-06 0)
(0.000168370440901 2.20132179214e-06 0)
(0.000163829879368 2.33910707813e-06 0)
(0.00015905088416 2.43975012537e-06 0)
(0.000154106664778 2.50432674716e-06 0)
(0.000149067436684 2.53475526095e-06 0)
(0.000143998781609 2.53375120727e-06 0)
(0.000138960167748 2.50471271146e-06 0)
(0.000134003763559 2.45154146419e-06 0)
(0.000129173651828 2.37842147293e-06 0)
(0.000124505497125 2.28958689726e-06 0)
(0.000120026657827 2.18910967197e-06 0)
(0.000115756680192 2.08072983384e-06 0)
(0.000111708077552 1.96774010012e-06 0)
(0.000107887285315 1.8529254957e-06 0)
(0.000104295688892 1.73855081797e-06 0)
(0.000100930640236 1.62638455802e-06 0)
(9.77864025261e-05 1.51774685831e-06 0)
(9.48549860088e-05 1.41357038061e-06 0)
(9.212685801e-05 1.31446528495e-06 0)
(8.95915249873e-05 1.22078219652e-06 0)
(8.72379944354e-05 1.13266939334e-06 0)
(8.50551300499e-05 1.05012234826e-06 0)
(8.30319160018e-05 9.73025083246e-07 0)
(8.11576463657e-05 9.01183649631e-07 0)
(7.94220546744e-05 8.34352528145e-07 0)
(7.78153967499e-05 7.72254942048e-07 0)
(7.6328497952e-05 7.14598133072e-07 0)
(7.49527739389e-05 6.61084564186e-07 0)
(7.3680232219e-05 6.11419932442e-07 0)
(7.25034601402e-05 5.65318710152e-07 0)
(7.14156036414e-05 5.22507847793e-07 0)
(7.04103399571e-05 4.82729111363e-07 0)
(6.94818465906e-05 4.45740481807e-07 0)
(6.86247681251e-05 4.11316911214e-07 0)
(6.78341818758e-05 3.79250731382e-07 0)
(6.71055628745e-05 3.49351907442e-07 0)
(6.64347482692e-05 3.21448372656e-07 0)
(6.58179008064e-05 2.95386607908e-07 0)
(6.52514706622e-05 2.7103271597e-07 0)
(6.47321544103e-05 2.48274207718e-07 0)
(6.42568493442e-05 2.27022863192e-07 0)
(6.3822600598e-05 2.07219070433e-07 0)
(6.34265374497e-05 1.88838305299e-07 0)
(6.3065793647e-05 1.71900627331e-07 0)
(6.27374043061e-05 1.56484611905e-07 0)
(6.24381683992e-05 1.42747827407e-07 0)
(6.21644602588e-05 1.30957341595e-07 0)
(6.19119644053e-05 1.2153589083e-07 0)
(6.16752927981e-05 1.15133286656e-07 0)
(6.14474180127e-05 1.12739083139e-07 0)
(6.12188136999e-05 1.15862628676e-07 0)
(6.09761314951e-05 1.26816568751e-07 0)
(6.0700187714e-05 1.49123586641e-07 0)
(6.03632131404e-05 1.87846241177e-07 0)
(5.99268375176e-05 2.48527907588e-07 0)
(5.93594634557e-05 3.18844639661e-07 0)
(0.00121019289679 0.000302843828239 0)
(0.00116037720104 0.000315166419755 0)
(0.0010270351772 0.000238114912721 0)
(0.000887613719268 0.000171817730927 0)
(0.000766926154239 0.000124566805831 0)
(0.000668449262318 9.20865003252e-05 0)
(0.000589485973888 6.96522793041e-05 0)
(0.000526218676098 5.38545683641e-05 0)
(0.000475218122022 4.24573118462e-05 0)
(0.000433755322301 3.4027734811e-05 0)
(0.000399749053408 2.76445852979e-05 0)
(0.000371631826718 2.27064131019e-05 0)
(0.000348221741709 1.88123883651e-05 0)
(0.000328620870296 1.56892633844e-05 0)
(0.000312139918238 1.31464444299e-05 0)
(0.000298243781902 1.10480033425e-05 0)
(0.000286512474296 9.29494048557e-06 0)
(0.000276613007862 7.81372598752e-06 0)
(0.000268279006741 6.54874801584e-06 0)
(0.000261295772199 5.45723644658e-06 0)
(0.000255489217758 4.50578440673e-06 0)
(0.000250717575128 3.66792058411e-06 0)
(0.000246865105481 2.92238515208e-06 0)
(0.000243837278857 2.25188510492e-06 0)
(0.000241557041129 1.64218174847e-06 0)
(0.00023996189598 1.08141204165e-06 0)
(0.000239001604381 5.59577225394e-07 0)
(0.000238636356585 6.81530529142e-08 0)
(0.000238835308618 -4.00210078641e-07 0)
(0.000239575400928 -8.51917779764e-07 0)
(0.000240840395886 -1.29261086895e-06 0)
(0.000242620085154 -1.72730470774e-06 0)
(0.000244909626117 -2.16049358018e-06 0)
(0.000247708972053 -2.59622524978e-06 0)
(0.000251022364547 -3.03814851669e-06 0)
(0.000254857858527 -3.48953470158e-06 0)
(0.000259226850318 -3.95327239358e-06 0)
(0.000264143577817 -4.43183348292e-06 0)
(0.000269624559368 -4.92720733076e-06 0)
(0.000275687934542 -5.44079906975e-06 0)
(0.000282352666157 -5.97328754052e-06 0)
(0.000289637559294 -6.5244386033e-06 0)
(0.000297560050536 -7.09287082202e-06 0)
(0.000306134720851 -7.67577338681e-06 0)
(0.000315371490191 -8.26858115059e-06 0)
(0.000325273463552 -8.86461945923e-06 0)
(0.000335834419731 -9.45474239291e-06 0)
(0.000347035968112 -1.00270020231e-05 0)
(0.000358844447534 -1.05664022481e-05 0)
(0.000371207704853 -1.10548063165e-05 0)
(0.000384051966061 -1.14710783527e-05 0)
(0.00039727909238 -1.17915408759e-05 0)
(0.000410764585008 -1.1990817198e-05 0)
(0.00042435674871 -1.20430960083e-05 0)
(0.000437877427923 -1.1923805273e-05 0)
(0.000451124673616 -1.1611617574e-05 0)
(0.000463877574328 -1.10906358097e-05 0)
(0.000475903287884 -1.03525338894e-05 0)
(0.000486966047181 -9.39836050295e-06 0)
(0.000496837603057 -8.23967172903e-06 0)
(0.000505308250937 -6.8986719345e-06 0)
(0.000512197339079 -5.40715246607e-06 0)
(0.000517362073385 -3.80424306478e-06 0)
(0.000520703601644 -2.13328776099e-06 0)
(0.000522169788914 -4.38410727975e-07 0)
(0.000521754682658 1.23858063748e-06 0)
(0.000519495229398 2.8604365018e-06 0)
(0.000515466160314 4.39564256976e-06 0)
(0.000509774013931 5.81867222949e-06 0)
(0.000502551074039 7.10960512729e-06 0)
(0.000493949696911 8.25347158471e-06 0)
(0.000484137190228 9.23962160474e-06 0)
(0.000473291176129 1.00612939363e-05 0)
(0.000461595257477 1.07154312261e-05 0)
(0.000449234804653 1.12026812773e-05 0)
(0.000436392762434 1.15274569732e-05 0)
(0.000423245502975 1.16979063627e-05 0)
(0.000409958876561 1.172567103e-05 0)
(0.000396684695991 1.16253742492e-05 0)
(0.000383557907989 1.14138584735e-05 0)
(0.000370694653975 1.11092579544e-05 0)
(0.000358191322327 1.07300277987e-05 0)
(0.000346124576561 1.0294049915e-05 0)
(0.000334552239342 9.81790714096e-06 0)
(0.000323514841509 9.31637391341e-06 0)
(0.000313037615217 8.80212989794e-06 0)
(0.000303132716299 8.28567132719e-06 0)
(0.000293801492009 7.77537705258e-06 0)
(0.00028503665403 7.27768099132e-06 0)
(0.000276824262517 6.79730629564e-06 0)
(0.000269145468087 6.33752493086e-06 0)
(0.000261977991483 5.90041631464e-06 0)
(0.000255297344291 5.48710793834e-06 0)
(0.000249077809313 5.0979885463e-06 0)
(0.000243293207646 4.73289004582e-06 0)
(0.000237917482892 4.39123812788e-06 0)
(0.000232925132955 4.07217383556e-06 0)
(0.000228291517729 3.7746495112e-06 0)
(0.000223993067872 3.49750296141e-06 0)
(0.000220007416163 3.23951364559e-06 0)
(0.000216313469418 2.99944438051e-06 0)
(0.000212891435497 2.77607163143e-06 0)
(0.000209722817037 2.56820700367e-06 0)
(0.000206790380883 2.374712113e-06 0)
(0.000204078110085 2.19450863766e-06 0)
(0.000201571143434 2.02658502892e-06 0)
(0.000199255706012 1.87000112151e-06 0)
(0.000197119032894 1.72389169186e-06 0)
(0.000195149287005 1.58746991948e-06 0)
(0.000193335471089 1.46003164649e-06 0)
(0.000191667332715 1.34096138513e-06 0)
(0.000190135260199 1.22974111507e-06 0)
(0.000188730166155 1.1259631538e-06 0)
(0.000187443354027 1.02934870109e-06 0)
(0.000186266361349 9.39774205916e-07 0)
(0.000185190771519 8.57308437621e-07 0)
(0.000184207983553 7.82264288348e-07 0)
(0.000183308926708 7.15270920666e-07 0)
(0.000182483704468 6.57374227752e-07 0)
(0.000181721151525 6.1017672364e-07 0)
(0.000181008291758 5.76031815996e-07 0)
(0.000180329704125 5.58309761442e-07 0)
(0.000179666860883 5.61744818135e-07 0)
(0.000178997659078 5.92821921168e-07 0)
(0.000178296780599 6.59941866e-07 0)
(0.000177538555335 7.72226502896e-07 0)
(0.000176707113868 9.31964064751e-07 0)
(0.000175817184791 1.09270221136e-06 0)
(0.00122478402524 0.000267866899884 0)
(0.00124106400757 0.000383679053842 0)
(0.0011960717948 0.000347936511147 0)
(0.00111313229404 0.000284357085493 0)
(0.00101986496374 0.000225982340945 0)
(0.000929975986657 0.000179036828974 0)
(0.000848903507885 0.000142737712731 0)
(0.00077804970269 0.000114890232811 0)
(0.000717053209198 9.34186898537e-05 0)
(0.000664894331013 7.66880295841e-05 0)
(0.000620398936037 6.3485949262e-05 0)
(0.000582449844355 5.29313623902e-05 0)
(0.000550061921142 4.43854422261e-05 0)
(0.000522396833281 3.73821638282e-05 0)
(0.000498753319814 3.15780047234e-05 0)
(0.000478549328215 2.67165664838e-05 0)
(0.000461303092777 2.26039163093e-05 0)
(0.000446615921943 1.90913839356e-05 0)
(0.00043415752689 1.60634835222e-05 0)
(0.00042365390599 1.34293546556e-05 0)
(0.000414877495224 1.11166309232e-05 0)
(0.00040763921684 9.06699612147e-06 0)
(0.000401782073957 7.23292500854e-06 0)
(0.000397175986535 5.57526430942e-06 0)
(0.000393713617805 4.06141651826e-06 0)
(0.000391306989369 2.6639612417e-06 0)
(0.000389884724462 1.35959816564e-06 0)
(0.000389389791953 1.28329693155e-07 0)
(0.000389777649559 -1.04717504628e-06 0)
(0.000391014703744 -2.18207356451e-06 0)
(0.000393077020078 -3.28973581788e-06 0)
(0.00039594922953 -4.38204273498e-06 0)
(0.000399623582341 -5.46960805502e-06 0)
(0.000404099106173 -6.56193342722e-06 0)
(0.000409380828447 -7.66750188038e-06 0)
(0.00041547902376 -8.79381107092e-06 0)
(0.000422408446591 -9.94734458909e-06 0)
(0.000430187507459 -1.11334770059e-05 0)
(0.000438837347555 -1.23563061959e-05 0)
(0.000448380763024 -1.36184050335e-05 0)
(0.000458840926185 -1.49204841343e-05 0)
(0.000470239847942 -1.62609585171e-05 0)
(0.000482596524692 -1.76354146804e-05 0)
(0.000495924716127 -1.90359816551e-05 0)
(0.000510230309702 -2.04506213012e-05 0)
(0.000525508246263 -2.18623704928e-05 0)
(0.000541739012519 -2.32485915511e-05 0)
(0.000558884752888 -2.45803167063e-05 0)
(0.000576885117672 -2.58218051411e-05 0)
(0.000595653046153 -2.69304619256e-05 0)
(0.000615070777772 -2.78572887569e-05 0)
(0.000634986482032 -2.85480359599e-05 0)
(0.000655211982418 -2.89451930661e-05 0)
(0.000675522100272 -2.89908839919e-05 0)
(0.00069565613861 -2.86306228042e-05 0)
(0.000715321944036 -2.78177460249e-05 0)
(0.000734202815919 -2.65181828229e-05 0)
(0.000751967275211 -2.47150715483e-05 0)
(0.000768281370442 -2.24125989338e-05 0)
(0.000782822808766 -1.96383594388e-05 0)
(0.000795295803188 -1.64435693924e-05 0)
(0.000805445210764 -1.29007049963e-05 0)
(0.000813068425018 -9.09860516708e-06 0)
(0.000818023693736 -5.13570077466e-06 0)
(0.000820234082194 -1.1125636916e-06 0)
(0.000819687061677 2.87485826615e-06 0)
(0.000816430432382 6.74022803248e-06 0)
(0.000810565747472 1.04095811515e-05 0)
(0.000802240472864 1.38221211565e-05 0)
(0.000791639877802 1.69296489238e-05 0)
(0.000778979269752 1.96953627487e-05 0)
(0.00076449680425 2.20926450701e-05 0)
(0.000748446821037 2.41042034662e-05 0)
(0.000731093520127 2.5721670736e-05 0)
(0.000712704787472 2.69455511259e-05 0)
(0.000693546077118 2.77852586761e-05 0)
(0.000673874408807 2.82589473264e-05 0)
(0.000653932691861 2.83928851757e-05 0)
(0.000633944686768 2.82202554021e-05 0)
(0.00061411093283 2.7779427872e-05 0)
(0.000594605900863 2.71118832386e-05 0)
(0.000575576499313 2.62600455993e-05 0)
(0.000557141910545 2.52652787668e-05 0)
(0.000539394600165 2.4166241206e-05 0)
(0.000522402251553 2.29977056893e-05 0)
(0.000506210338306 2.17898619042e-05 0)
(0.000490845053219 2.05680530782e-05 0)
(0.000476316349842 1.93528587719e-05 0)
(0.000462620906509 1.81604228677e-05 0)
(0.000449744880064 1.70029314574e-05 0)
(0.000437666368854 1.5889161491e-05 0)
(0.00042635754731 1.48250410876e-05 0)
(0.000415786466253 1.38141817065e-05 0)
(0.000405918534669 1.28583586524e-05 0)
(0.000396717711701 1.19579287409e-05 0)
(0.000388147444081 1.11121825799e-05 0)
(0.000380171386078 1.03196344042e-05 0)
(0.000372753937792 9.57825547974e-06 0)
(0.000365860634702 8.88565850915e-06 0)
(0.000359458417434 8.23924074841e-06 0)
(0.000353515806569 7.63629320619e-06 0)
(0.000348003003218 7.07408255834e-06 0)
(0.000342891932315 6.54991159851e-06 0)
(0.00033815624218 6.06116315094e-06 0)
(0.00033377127099 5.60533163233e-06 0)
(0.000329713988219 5.18004572544e-06 0)
(0.000325962916965 4.78308513228e-06 0)
(0.000322498041208 4.41239390501e-06 0)
(0.000319300700412 4.06609263135e-06 0)
(0.000316353472447 3.74249154225e-06 0)
(0.000313640044482 3.44010665931e-06 0)
(0.000311145070256 3.15768115803e-06 0)
(0.000308854010936 2.8942144589e-06 0)
(0.000306752955624 2.64900191444e-06 0)
(0.000304828416558 2.4216886142e-06 0)
(0.000303067093334 2.21234149047e-06 0)
(0.000301455600432 2.02154478609e-06 0)
(0.000299980153879 1.85052454144e-06 0)
(0.000298626217494 1.70130777232e-06 0)
(0.000297378120109 1.57691966254e-06 0)
(0.000296218678463 1.48161387668e-06 0)
(0.000295128907653 1.42110700067e-06 0)
(0.000294087993569 1.40272289034e-06 0)
(0.000293073877817 1.43517638105e-06 0)
(0.000292065118126 1.52723729186e-06 0)
(0.000291045187967 1.68309490853e-06 0)
(0.000290010153264 1.88757267408e-06 0)
(0.00028897443457 2.06272141074e-06 0)
(0.00122190748412 0.000221175381089 0)
(0.0012532777064 0.000382720355495 0)
(0.00125075171012 0.000396413411044 0)
(0.00121275795018 0.000356813437115 0)
(0.0011543223365 0.000305228923861 0)
(0.00108785549804 0.000256146052208 0)
(0.00102083946879 0.000213716987844 0)
(0.000957243337642 0.00017836088393 0)
(0.00089889967849 0.0001492881808 0)
(0.00084643449254 0.000125442591701 0)
(0.00079983175191 0.000105829511183 0)
(0.000758759465985 8.96091660232e-05 0)
(0.000722751527873 7.61034874047e-05 0)
(0.000691305582459 6.47751389934e-05 0)
(0.000663933172467 5.52009397301e-05 0)
(0.000640183330429 4.70474515513e-05 0)
(0.000619651746207 4.00508371705e-05 0)
(0.000601982362865 3.40010034794e-05 0)
(0.00058686521955 2.87293886906e-05 0)
(0.000574032633433 2.40996431423e-05 0)
(0.000563254838775 2.00005349977e-05 0)
(0.000554335656778 1.63405402923e-05 0)
(0.000547108469259 1.30437000834e-05 0)
(0.000541432606134 1.00464298779e-05 0)
(0.000537190170759 7.2950466956e-06 0)
(0.000534283284006 4.74383974798e-06 0)
(0.000532631708095 2.35355614391e-06 0)
(0.000532170803794 9.02066914977e-08 0)
(0.00053284977298 -2.07587784076e-06 0)
(0.000534630139348 -4.17078717015e-06 0)
(0.000537484425268 -6.21761683665e-06 0)
(0.000541394984745 -8.23691924091e-06 0)
(0.000546352951726 -1.02470358821e-05 0)
(0.000552357265269 -1.22643232133e-05 0)
(0.000559413732968 -1.43032777943e-05 0)
(0.000567534092757 -1.6376561309e-05 0)
(0.000576735030933 -1.84949216176e-05 0)
(0.00058703711106 -2.06670023823e-05 0)
(0.000598463564519 -2.28990309382e-05 0)
(0.000611038889399 -2.51943724222e-05 0)
(0.000624787200646 -2.75529382863e-05 0)
(0.000639730272014 -2.9970440166e-05 0)
(0.00065588521071 -3.24374869581e-05 0)
(0.000673261710697 -3.49385354009e-05 0)
(0.000691858842803 -3.74507243391e-05 0)
(0.000711661362357 -3.99426516066e-05 0)
(0.000732635551261 -4.23731910595e-05 0)
(0.000754724664711 -4.46904944529e-05 0)
(0.000777844125283 -4.68313747654e-05 0)
(0.000801876698678 -4.87213154462e-05 0)
(0.000826667991443 -5.02753808765e-05 0)
(0.000852022720684 -5.14002993812e-05 0)
(0.000877702301262 -5.19979342715e-05 0)
(0.000903424352891 -5.19702384056e-05 0)
(0.00092886472164 -5.12256049087e-05 0)
(0.000953662515287 -4.96862964614e-05 0)
(0.000977428458236 -4.72963853365e-05 0)
(0.000999756580214 -4.40293935411e-05 0)
(0.00102023887476 -3.9894615399e-05 0)
(0.00103848211871 -3.49409796247e-05 0)
(0.00105412557607 -2.92573612744e-05 0)
(0.00106685791213 -2.29686232313e-05 0)
(0.00107643147254 -1.62274345947e-05 0)
(0.00108267229978 -9.20294708224e-06 0)
(0.00108548491918 -2.06831194162e-06 0)
(0.00108485187073 5.01068200757e-06 0)
(0.00108082886839 1.18840361259e-05 0)
(0.00107353701768 1.84223031841e-05 0)
(0.00106315357553 2.4518105343e-05 0)
(0.001049902413 3.00854073023e-05 0)
(0.00103404486401 3.50577422462e-05 0)
(0.00101587119313 3.93863788637e-05 0)
(0.000995692604446 4.30390146334e-05 0)
(0.000973833572083 4.59991621276e-05 0)
(0.000950624281001 4.82660491119e-05 0)
(0.000926393087857 4.98546264473e-05 0)
(0.000901459093862 5.07952011616e-05 0)
(0.000876125102231 5.11322968414e-05 0)
(0.000850671349908 5.09225564156e-05 0)
(0.000825350417419 5.0231767693e-05 0)
(0.00080038362968 4.91313175289e-05 0)
(0.000775959097394 4.76945003996e-05 0)
(0.000752231364135 4.59931029241e-05 0)
(0.000729322465377 4.4094585556e-05 0)
(0.000707324101669 4.20600361616e-05 0)
(0.000686300585859 3.99429267338e-05 0)
(0.000666292234578 3.77885951267e-05 0)
(0.000647318919711 3.56343101715e-05 0)
(0.000629383558257 3.35097564944e-05 0)
(0.000612475384538 3.14377835181e-05 0)
(0.000596572907922 2.9435288226e-05 0)
(0.000581646507439 2.75141328728e-05 0)
(0.000567660650823 2.56820296092e-05 0)
(0.000554575750356 2.39433502579e-05 0)
(0.000542349683444 2.22998397651e-05 0)
(0.000530939014157 2.07512262931e-05 0)
(0.000520299955086 1.92957304084e-05 0)
(0.000510389108587 1.79304814003e-05 0)
(0.000501164023922 1.66518516245e-05 0)
(0.000492583603185 1.54557206715e-05 0)
(0.000484608384709 1.43376809996e-05 0)
(0.00047720072839 1.3293195727e-05 0)
(0.000470324923325 1.23177181731e-05 0)
(0.000463947234467 1.14067813869e-05 0)
(0.000458035901695 1.05560647863e-05 0)
(0.000452561101796 9.76144385678e-06 0)
(0.000447494881373 9.01902806736e-06 0)
(0.00044281106653 8.32519133552e-06 0)
(0.000438485153321 7.67659896966e-06 0)
(0.000434494181332 7.07023456008e-06 0)
(0.000430816591393 6.50343024797e-06 0)
(0.000427432067199 5.97390367253e-06 0)
(0.000424321359681 5.4798051527e-06 0)
(0.000421466092245 5.01977874966e-06 0)
(0.000418848544815 4.59304120711e-06 0)
(0.000416451415111 4.19948267669e-06 0)
(0.000414257557386 3.83979277503e-06 0)
(0.000412249702907 3.51561362293e-06 0)
(0.000410410174188 3.22971713269e-06 0)
(0.000408720619028 2.98619330101e-06 0)
(0.000407161814694 2.79061361461e-06 0)
(0.000405713632903 2.65008403685e-06 0)
(0.000404355319925 2.57299371264e-06 0)
(0.000403066336143 2.56802237979e-06 0)
(0.000401828091333 2.6414094503e-06 0)
(0.000400626805057 2.79014921305e-06 0)
(0.000399456481942 2.9858769957e-06 0)
(0.000398315221803 3.14137205234e-06 0)
(0.00121689020163 0.000182377682901 0)
(0.00124888289511 0.000358155121463 0)
(0.0012651583186 0.00040722920876 0)
(0.00125491196432 0.000394237742899 0)
(0.00122392915183 0.00035722303308 0)
(0.00118053003521 0.000314017886825 0)
(0.00113127394004 0.000272117265975 0)
(0.00108054448956 0.000234286175132 0)
(0.00103103603081 0.000201214994482 0)
(0.00098428475571 0.000172732225284 0)
(0.000941077091592 0.000148350267743 0)
(0.000901732222572 0.000127505548967 0)
(0.000866288611242 0.000109658637625 0)
(0.000834623877384 9.43306509437e-05 0)
(0.000806530329631 8.11113676408e-05 0)
(0.000781761659247 6.9655517453e-05 0)
(0.000760061158416 5.96748370695e-05 0)
(0.000741178237745 5.09292878048e-05 0)
(0.000724877614411 4.32188508225e-05 0)
(0.000710943966863 3.63763942368e-05 0)
(0.000699183832208 3.02616927128e-05 0)
(0.000689425867483 2.47565089384e-05 0)
(0.000681520177566 1.97605888886e-05 0)
(0.000675337145967 1.5188416441e-05 0)
(0.000670766035439 1.09665875831e-05 0)
(0.000667713517931 7.03168586761e-06 0)
(0.000666102225416 3.32856270051e-06 0)
(0.000665869370042 -1.91054113406e-07 0)
(0.000666965453775 -3.56968173071e-06 0)
(0.000669353070146 -6.84497531699e-06 0)
(0.000673005793016 -1.00504439764e-05 0)
(0.000677907137075 -1.32159990203e-05 0)
(0.000684049566534 -1.6368352518e-05 0)
(0.000691433526519 -1.95312763979e-05 0)
(0.000700066467177 -2.27257253343e-05 0)
(0.000709961826319 -2.59698209349e-05 0)
(0.000721137931954 -2.92786897405e-05 0)
(0.000733616781417 -3.2664143369e-05 0)
(0.000747422648969 -3.61341859928e-05 0)
(0.000762580469049 -3.9692332853e-05 0)
(0.000779113938434 -4.33367245441e-05 0)
(0.000797043278193 -4.70590267111e-05 0)
(0.000816382596962 -5.08431153178e-05 0)
(0.000837136802506 -5.46635659709e-05 0)
(0.000859298021344 -5.84839943159e-05 0)
(0.00088284150946 -6.22553354075e-05 0)
(0.000907721074636 -6.59142043035e-05 0)
(0.000933864086244 -6.93815465045e-05 0)
(0.00096116622469 -7.25618597273e-05 0)
(0.000989486220527 -7.53433360358e-05 0)
(0.00101864094895 -7.7599316765e-05 0)
(0.00104840136815 -7.91914469407e-05 0)
(0.00107848990057 -7.99748352434e-05 0)
(0.00110857992668 -7.98053520659e-05 0)
(0.00113829806057 -7.85489329809e-05 0)
(0.00116722977925 -7.60924227644e-05 0)
(0.00119492876978 -7.23551381462e-05 0)
(0.00122093004409 -6.72999866782e-05 0)
(0.00124476646052 -6.09426872214e-05 0)
(0.00126598779661 -5.33574463656e-05 0)
(0.00128418096677 -4.46774853355e-05 0)
(0.00129898946591 -3.50893027261e-05 0)
(0.00131012984219 -2.48206656384e-05 0)
(0.0013174032047 -1.41238854967e-05 0)
(0.0013207005657 -3.25733970657e-06 0)
(0.00132000201056 7.53132167961e-06 0)
(0.00131537083281 1.80175795664e-05 0)
(0.00130694442518 2.80070166111e-05 0)
(0.00129492371871 3.73375353984e-05 0)
(0.00127956249494 4.58783553921e-05 0)
(0.0012611572766 5.35275506877e-05 0)
(0.00124003796591 6.02095386681e-05 0)
(0.0012165590626 6.58733309294e-05 0)
(0.00119109116061 7.04917616236e-05 0)
(0.00116401245808 7.40614219535e-05 0)
(0.00113570017391 7.66027070379e-05 0)
(0.00110652199177 7.81592705292e-05 0)
(0.00107682787552 7.87963073713e-05 0)
(0.00104694274232 7.85974022804e-05 0)
(0.00101716049092 7.7660076205e-05 0)
(0.000987739763094 7.60904955105e-05 0)
(0.000958901610405 7.39979795856e-05 0)
(0.000930829013551 7.14899280936e-05 0)
(0.000903668015333 6.86676343692e-05 0)
(0.000877530113261 6.56232335329e-05 0)
(0.000852495518106 6.24378246692e-05 0)
(0.000828616905219 5.91806500797e-05 0)
(0.000805923343235 5.59091255145e-05 0)
(0.000784424158482 5.26694857813e-05 0)
(0.000764112567166 4.94978228303e-05 0)
(0.000744968971954 4.64213295274e-05 0)
(0.000726963871019 4.34596069961e-05 0)
(0.000710060365491 4.06259367836e-05 0)
(0.00069421627714 3.79284560623e-05 0)
(0.000679385904203 3.5371202769e-05 0)
(0.000665521452092 3.29550181909e-05 0)
(0.000652574179163 3.0678308248e-05 0)
(0.000640495297791 2.8537673056e-05 0)
(0.000629236668748 2.65284188108e-05 0)
(0.000618751323431 2.46449677774e-05 0)
(0.000608993844471 2.28811822501e-05 0)
(0.000599920631067 2.12306173744e-05 0)
(0.000591490071346 1.96867163063e-05 0)
(0.000583662640325 1.82429595141e-05 0)
(0.000576400938648 1.68929784543e-05 0)
(0.000569669684294 1.56306423406e-05 0)
(0.000563435666857 1.44501255004e-05 0)
(0.000557667671712 1.33459617256e-05 0)
(0.000552336379496 1.23130912609e-05 0)
(0.000547414244662 1.13469054308e-05 0)
(0.000542875355531 1.0443293555e-05 0)
(0.000538695277167 9.59869650231e-06 0)
(0.000534850877667 8.81017112123e-06 0)
(0.000531320138056 8.0754695556e-06 0)
(0.000528081946212 7.3931371174e-06 0)
(0.000525115876204 6.76263141951e-06 0)
(0.000522401956733 6.18446346875e-06 0)
(0.000519920436399 5.66035709229e-06 0)
(0.000517651560479 5.19341458213e-06 0)
(0.000515575384784 4.78825973922e-06 0)
(0.000513671668585 4.45109731565e-06 0)
(0.000511919911533 4.18956517617e-06 0)
(0.00051029962685 4.01213243798e-06 0)
(0.000508790961075 3.92655146275e-06 0)
(0.000507375720066 3.9363804114e-06 0)
(0.000506038528487 4.03366643974e-06 0)
(0.000504766559332 4.184653705e-06 0)
(0.00050354335614 4.30703452616e-06 0)
(0.00121278679039 0.000152700675746 0)
(0.00124145410673 0.000327172099022 0)
(0.00126514516427 0.00039824574006 0)
(0.00127094792345 0.000407664795031 0)
(0.00125913436274 0.00038659234178 0)
(0.00123435564163 0.000352826403224 0)
(0.00120145648097 0.000315463992172 0)
(0.00116427577644 0.000278849589902 0)
(0.00112555367902 0.000244882120875 0)
(0.0010871340092 0.000214236027781 0)
(0.00105019794628 0.00018699017515 0)
(0.00101545933565 0.000162949102923 0)
(0.000983312017575 0.000141805993591 0)
(0.000953936032337 0.000123223993397 0)
(0.000927372323106 0.000106875260309 0)
(0.000903574447092 9.24581481671e-05 0)
(0.000882443920469 7.97032097002e-05 0)
(0.00086385408477 6.83736464252e-05 0)
(0.000847666002767 5.82631715205e-05 0)
(0.000833738862192 4.91928348818e-05 0)
(0.00082193662087 4.10076006648e-05 0)
(0.000812132097705 3.35730610912e-05 0)
(0.000804209341937 2.67724544477e-05 0)
(0.000798064853499 2.05040429997e-05 0)
(0.000793608046665 1.467885079e-05 0)
(0.00079076122388 9.21873596924e-06 0)
(0.000789459239686 4.05476324291e-06 0)
(0.00078964897424 -8.74158653854e-07 0)
(0.000791288691598 -5.62240151857e-06 0)
(0.00079434733036 -1.02385319729e-05 0)
(0.000798803756265 -1.47660551344e-05 0)
(0.000804645985776 -1.92439778533e-05 0)
(0.000811870377005 -2.37072078474e-05 0)
(0.000820480777881 -2.8186792135e-05 0)
(0.000830487613174 -3.27099921895e-05 0)
(0.000841906884981 -3.73001878385e-05 0)
(0.000854759054762 -4.19765969939e-05 0)
(0.000869067768803 -4.67537940979e-05 0)
(0.000884858383072 -5.16410071455e-05 0)
(0.000902156237868 -5.66411721119e-05 0)
(0.000920984628017 -6.17497257729e-05 0)
(0.000941362411335 -6.69531249211e-05 0)
(0.000963301197802 -7.22270941554e-05 0)
(0.000986802066249 -7.75346284817e-05 0)
(0.00101185176665 -8.28238140929e-05 0)
(0.00103841838768 -8.80255837094e-05 0)
(0.0010664465049 -9.3051593491e-05 0)
(0.00109585187972 -9.77924953187e-05 0)
(0.00112651585648 -0.000102116974597 0)
(0.00115827970831 -0.000105872014725 0)
(0.00119093930834 -0.000108884910459 0)
(0.00122424064279 -0.000110967549621 0)
(0.0012578768151 -0.000111923379647 0)
(0.00129148728413 -0.000111557245688 0)
(0.00132466009696 -0.000109687930403 0)
(0.00135693778451 -0.000106162778172 0)
(0.00138782737252 -0.000100873310862 0)
(0.00141681462695 -9.37702957318e-05 0)
(0.00144338221477 -8.48763391702e-05 0)
(0.00146703091684 -7.42937932233e-05 0)
(0.00148730237843 -6.2205734975e-05 0)
(0.00150380120536 -4.88683483425e-05 0)
(0.00151621376297 -3.45945280345e-05 0)
(0.00152432118522 -1.97307874669e-05 0)
(0.0015280050734 -4.63167227194e-06 0)
(0.00152724591869 1.03633731695e-05 0)
(0.00152211577216 2.49468566208e-05 0)
(0.001512767472 3.8852447807e-05 0)
(0.00149942263188 5.18576484701e-05 0)
(0.0014823598979 6.37821957116e-05 0)
(0.00146190415363 7.44846669914e-05 0)
(0.00143841670724 8.38591718861e-05 0)
(0.00141228613514 9.1833163849e-05 0)
(0.00138391934714 9.8366607517e-05 0)
(0.0013537325138 0.0001034520987 0)
(0.00132214170918 0.000107115103849 0)
(0.00128955341406 0.000109413334031 0)
(0.00125635531085 0.000110434445124 0)
(0.00122290798163 0.00011029170817 0)
(0.00118953812961 0.000109117855151 0)
(0.00115653378533 0.000107057771126 0)
(0.00112414169487 0.000104260931422 0)
(0.00109256680954 0.00010087444538 0)
(0.00106197357687 9.70373382098e-05 0)
(0.00103248860883 9.28763939413e-05 0)
(0.00100420427132 8.85035954339e-05 0)
(0.00097718277696 8.40149898088e-05 0)
(0.000951460438818 7.94906941715e-05 0)
(0.000927051830928 7.49957232075e-05 0)
(0.000903953684791 7.05813415554e-05 0)
(0.000882148420569 6.6286694187e-05 0)
(0.000861607265057 6.2140527906e-05 0)
(0.00084229294644 5.81628741578e-05 0)
(0.000824161980948 5.43666114732e-05 0)