/*--------------------------------*- C++ -*----------------------------------*\
  =========                 |
  \\      /  F ield         | OpenFOAM: The Open Source CFD Toolbox
   \\    /   O peration     | Website:  https://openfoam.org
    \\  /    A nd           | Version:  7
     \\/     M anipulation  |
\*---------------------------------------------------------------------------*/
FoamFile
{
    version     2.0;
    format      ascii;
    class       volScalarField;
    location    "6.149952e+08";
    object      K;
}
// * * * * * * * * * * * * * * * * * * * * * * * * * * * * * * * * * * * * * //

dimensions      [0 2 0 0 0 0 0];

internalField   nonuniform List<scalar> 
80
(
2.6201e-10
2.6201e-10
2.61946e-10
2.5174e-10
2.07934e-10
1.34847e-10
6.73667e-11
3.1967e-11
1.90698e-11
1.45616e-11
1.28904e-11
1.22523e-11
1.20086e-11
1.19163e-11
1.18815e-11
1.18685e-11
1.18636e-11
1.18618e-11
1.18611e-11
1.18608e-11
1.18607e-11
1.18606e-11
1.18606e-11
1.18606e-11
1.18606e-11
1.18606e-11
1.18606e-11
1.18606e-11
1.18606e-11
1.18606e-11
1.18606e-11
1.18606e-11
1.18606e-11
1.18606e-11
1.18606e-11
1.18605e-11
1.18605e-11
1.18605e-11
1.18605e-11
1.18605e-11
1.18605e-11
1.18605e-11
1.18605e-11
1.18605e-11
1.18605e-11
1.18605e-11
1.18605e-11
1.18605e-11
1.18605e-11
1.18605e-11
1.18605e-11
1.18605e-11
1.18605e-11
1.18605e-11
1.18605e-11
1.18605e-11
1.18605e-11
1.18605e-11
1.18605e-11
1.18605e-11
1.18605e-11
1.18605e-11
1.18605e-11
1.18605e-11
1.18605e-11
1.18605e-11
1.18605e-11
1.18605e-11
1.18605e-11
1.18605e-11
1.18605e-11
1.18605e-11
1.18605e-11
1.18605e-11
1.18605e-11
1.18605e-11
1.18604e-11
1.18604e-11
1.18604e-11
1.18604e-11
)
;

boundaryField
{
    outlet
    {
        type            zeroGradient;
    }
    inlet
    {
        type            zeroGradient;
    }
    frontAndBack
    {
        type            empty;
    }
}


// ************************************************************************* //
