/*--------------------------------*- C++ -*----------------------------------*\
  =========                 |
  \\      /  F ield         | OpenFOAM: The Open Source CFD Toolbox
   \\    /   O peration     | Website:  https://openfoam.org
    \\  /    A nd           | Version:  7
     \\/     M anipulation  |
\*---------------------------------------------------------------------------*/
FoamFile
{
    version     2.0;
    format      ascii;
    class       volScalarField;
    location    "1320";
    object      Ci;
}
// * * * * * * * * * * * * * * * * * * * * * * * * * * * * * * * * * * * * * //

dimensions      [0 -3 0 0 1 0 0];

internalField   nonuniform List<scalar> 
8192
(
9.99999999929
10.0000000025
10.0000000085
10.0000000168
10.0000000269
10.0000000396
10.0000000564
10.000000077
10.0000001009
10.0000001274
10.0000001558
10.0000001855
10.000000216
10.0000002468
10.0000002776
10.0000003082
10.0000003387
10.0000003687
10.0000003985
10.000000428
10.0000004573
10.0000004866
10.0000005159
10.0000005449
10.0000005735
10.0000006016
10.0000006289
10.0000006551
10.0000006802
10.0000007039
10.0000007259
10.0000007458
10.000000763
10.0000007768
10.0000007866
10.0000007916
10.0000007913
10.0000007849
10.0000007719
10.0000007519
10.0000007245
10.0000006895
10.0000006471
10.0000005972
10.0000005404
10.0000004768
10.0000004073
10.0000003321
10.0000002523
10.0000001681
10.0000000803
9.9999999891
9.99999989503
9.99999979799
9.99999969819
9.99999959528
9.99999948933
9.99999937999
9.9999992675
9.99999915188
9.9999990339
9.99999891425
9.99999879446
9.9999986759
9.99999856074
9.99999845084
9.99999834865
9.99999825618
9.99999817585
9.99999810953
9.99999805939
9.99999802697
9.99999801403
9.99999802163
9.99999805093
9.99999810231
9.99999817618
9.99999827207
9.99999838951
9.99999852719
9.99999868384
9.99999885749
9.99999904632
9.99999924803
9.99999946057
9.99999968164
9.99999990928
10.0000001414
10.0000003764
10.0000006126
10.0000008488
10.0000010837
10.0000013168
10.0000015474
10.0000017762
10.0000020066
10.000002242
10.0000024826
10.0000027274
10.0000029751
10.0000032244
10.0000034741
10.0000037233
10.000003971
10.0000042163
10.0000044585
10.0000046971
10.0000049313
10.0000051608
10.0000053851
10.0000056038
10.0000058166
10.0000060233
10.0000062235
10.0000064171
10.0000066039
10.0000067837
10.0000069566
10.0000071224
10.0000072812
10.0000074331
10.0000075783
10.0000077166
10.000007848
10.0000079713
10.0000080841
10.0000081801
10.0000082413
9.99999999974
10.0000000045
10.000000012
10.0000000218
10.0000000347
10.0000000505
10.0000000693
10.0000000908
10.0000001148
10.0000001408
10.0000001684
10.0000001972
10.0000002267
10.0000002567
10.000000287
10.0000003174
10.0000003479
10.0000003783
10.0000004086
10.000000439
10.0000004694
10.0000005005
10.0000005319
10.0000005633
10.0000005944
10.0000006251
10.0000006552
10.0000006844
10.0000007127
10.0000007396
10.0000007651
10.0000007885
10.0000008091
10.0000008261
10.0000008387
10.000000846
10.0000008473
10.0000008417
10.0000008288
10.0000008079
10.0000007787
10.000000741
10.0000006949
10.0000006405
10.0000005782
10.0000005085
10.000000432
10.0000003494
10.0000002613
10.0000001682
10.0000000707
9.99999996894
9.99999986329
9.99999975355
9.99999963979
9.99999952168
9.99999939936
9.99999927274
9.99999914247
9.99999900916
9.99999887434
9.9999987395
9.99999860701
9.999998479
9.99999835823
9.99999824701
9.99999814798
9.99999806317
9.99999799478
9.9999979443
9.99999791333
9.99999790273
9.99999791346
9.99999794577
9.99999799996
9.99999807565
9.99999817246
9.99999828939
9.99999842544
9.99999857905
9.99999874874
9.99999893258
9.9999991288
9.99999933535
9.99999955043
9.99999977206
9.9999999986
10.0000002284
10.00000046
10.0000006921
10.0000009238
10.0000011541
10.0000013824
10.0000016081
10.0000018312
10.0000020587
10.0000022961
10.0000025397
10.000002787
10.0000030366
10.0000032871
10.0000035375
10.0000037868
10.0000040341
10.0000042788
10.0000045202
10.0000047576
10.0000049906
10.0000052187
10.0000054414
10.0000056585
10.0000058696
10.0000060745
10.0000062729
10.0000064646
10.0000066495
10.0000068275
10.0000069984
10.0000071623
10.0000073192
10.0000074692
10.0000076123
10.0000077488
10.0000078785
10.0000080009
10.0000081144
10.0000082173
10.0000082834
9.99999999965
10.0000000053
10.0000000141
10.0000000253
10.000000039
10.0000000556
10.0000000757
10.000000099
10.0000001253
10.000000154
10.0000001849
10.0000002173
10.000000251
10.0000002854
10.0000003206
10.0000003561
10.000000392
10.0000004281
10.0000004645
10.000000501
10.0000005378
10.000000575
10.0000006124
10.00000065
10.0000006877
10.0000007252
10.0000007624
10.000000799
10.0000008347
10.0000008693
10.0000009024
10.0000009335
10.0000009622
10.0000009878
10.0000010101
10.0000010282
10.0000010421
10.000001051
10.0000010549
10.0000010533
10.0000010463
10.0000010336
10.0000010154
10.0000009915
10.0000009621
10.000000927
10.0000008863
10.0000008398
10.0000007874
10.0000007286
10.0000006631
10.00000059
10.0000005089
10.0000004187
10.0000003189
10.0000002084
10.0000000873
9.9999999549
9.99999981214
9.99999965961
9.99999949928
9.99999933299
9.99999916383
9.9999989945
9.99999882867
9.99999866935
9.99999852021
9.99999838403
9.9999982641
9.99999816273
9.99999808261
9.99999802547
9.99999799331
9.99999798715
9.99999800816
9.99999805647
9.99999813225
9.99999823469
9.99999836294
9.9999985153
9.99999869009
9.99999888495
9.99999909769
9.99999932563
9.99999956642
9.99999981737
10.0000000762
10.0000003405
10.0000006084
10.0000008778
10.0000011471
10.0000014149
10.00000168
10.0000019415
10.0000021985
10.0000024517
10.0000027036
10.0000029547
10.000003205
10.0000034542
10.0000037018
10.0000039473
10.0000041901
10.0000044298
10.0000046659
10.0000048978
10.0000051252
10.0000053477
10.0000055649
10.0000057766
10.0000059824
10.0000061821
10.0000063754
10.0000065623
10.0000067425
10.000006916
10.0000070825
10.0000072422
10.0000073948
10.0000075406
10.0000076795
10.0000078117
10.0000079374
10.0000080562
10.0000081689
10.0000082719
10.0000083766
10.0000084065
9.99999999953
10.0000000057
10.0000000154
10.000000028
10.0000000434
10.0000000613
10.0000000817
10.0000001054
10.0000001324
10.0000001623
10.000000195
10.00000023
10.0000002671
10.0000003059
10.0000003464
10.0000003883
10.0000004314
10.0000004757
10.0000005212
10.0000005677
10.0000006153
10.000000664
10.0000007137
10.0000007644
10.000000816
10.0000008683
10.0000009213
10.0000009748
10.0000010286
10.0000010823
10.000001136
10.000001189
10.0000012417
10.0000012929
10.0000013434
10.0000013917
10.0000014389
10.0000014833
10.0000015261
10.0000015658
10.000001603
10.0000016367
10.0000016671
10.0000016932
10.0000017149
10.0000017314
10.0000017421
10.0000017461
10.0000017427
10.0000017307
10.0000017094
10.0000016773
10.0000016334
10.0000015765
10.0000015055
10.0000014193
10.0000013173
10.0000011991
10.0000010649
10.0000009152
10.0000007513
10.0000005749
10.0000003884
10.0000001943
9.99999999553
9.99999979519
9.99999959657
9.99999940276
9.99999921713
9.99999904279
9.99999888311
9.99999874113
9.9999986201
9.99999852284
9.99999845214
9.99999841016
9.99999839881
9.99999841917
9.9999984719
9.99999855679
9.99999867318
9.99999881962
9.9999989943
9.99999919483
9.99999941866
9.99999966286
9.99999992451
10.0000002005
10.000000488
10.0000007841
10.0000010861
10.0000013916
10.0000016983
10.0000020043
10.0000023078
10.0000026075
10.0000029027
10.0000031932
10.0000034787
10.0000037589
10.0000040335
10.0000043022
10.0000045646
10.0000048204
10.0000050694
10.0000053112
10.0000055457
10.0000057726
10.0000059917
10.0000062029
10.0000064062
10.0000066014
10.0000067885
10.0000069675
10.0000071384
10.0000073012
10.0000074561
10.000007603
10.0000077422
10.0000078739
10.0000079982
10.0000081154
10.000008226
10.0000083291
10.000008428
10.0000085113
10.0000086224
10.0000085673
9.99999999964
10.0000000064
10.0000000175
10.0000000318
10.0000000491
10.0000000689
10.0000000911
10.000000115
10.0000001419
10.0000001718
10.0000002046
10.0000002402
10.0000002785
10.0000003194
10.000000363
10.0000004091
10.0000004577
10.0000005089
10.0000005626
10.0000006188
10.0000006774
10.0000007384
10.0000008019
10.0000008676
10.0000009356
10.0000010055
10.0000010776
10.0000011512
10.0000012268
10.0000013031
10.0000013815
10.0000014595
10.0000015398
10.0000016185
10.0000016997
10.000001778
10.0000018587
10.0000019354
10.0000020139
10.0000020878
10.0000021619
10.0000022311
10.0000022982
10.0000023601
10.0000024175
10.0000024687
10.0000025132
10.00000255
10.0000025781
10.0000025966
10.0000026045
10.0000026007
10.0000025843
10.0000025541
10.0000025093
10.000002449
10.0000023726
10.0000022796
10.00000217
10.000002044
10.0000019024
10.0000017462
10.000001577
10.0000013964
10.0000012066
10.0000010095
10.0000008074
10.0000006025
10.0000003974
10.0000001945
9.99999999677
9.99999980708
9.99999962882
9.99999946532
9.99999932018
9.99999919674
9.9999990983
9.9999990277
9.99999898741
9.99999897922
9.99999900439
9.99999906339
9.99999915608
9.99999928157
9.99999943846
9.9999996247
9.9999998379
10.0000000753
10.0000003338
10.0000006103
10.0000009018
10.0000012049
10.0000015168
10.0000018346
10.0000021556
10.0000024774
10.000002798
10.0000031156
10.0000034289
10.0000037365
10.0000040375
10.0000043311
10.0000046165
10.0000048931
10.0000051605
10.0000054183
10.0000056661
10.0000059039
10.0000061313
10.0000063485
10.0000065552
10.0000067517
10.0000069379
10.0000071141
10.0000072804
10.000007437
10.0000075842
10.0000077222
10.0000078514
10.0000079722
10.0000080852
10.0000081904
10.0000082892
10.0000083794
10.0000084691
10.0000085337
10.0000086534
10.0000085623
9.99999999964
10.000000007
10.000000019
10.0000000351
10.0000000547
10.000000077
10.0000001014
10.0000001274
10.0000001547
10.0000001845
10.000000217
10.0000002524
10.0000002908
10.0000003324
10.0000003772
10.0000004255
10.0000004774
10.0000005329
10.0000005922
10.0000006552
10.000000722
10.0000007923
10.0000008664
10.0000009438
10.0000010247
10.0000011083
10.0000011955
10.000001284
10.0000013767
10.0000014688
10.0000015662
10.0000016599
10.0000017612
10.0000018548
10.0000019587
10.0000020504
10.0000021549
10.0000022437
10.0000023454
10.0000024306
10.0000025256
10.000002606
10.0000026906
10.0000027637
10.0000028351
10.0000028973
10.0000029534
10.0000030009
10.00000304
10.0000030696
10.0000030892
10.0000030983
10.000003096
10.0000030817
10.0000030547
10.0000030143
10.0000029599
10.0000028911
10.0000028076
10.0000027095
10.0000025972
10.0000024716
10.0000023336
10.0000021845
10.0000020258
10.0000018587
10.0000016847
10.0000015051
10.0000013216
10.0000011355
10.0000009489
10.0000007637
10.0000005825
10.0000004078
10.0000002427
10.0000000903
9.99999995377
9.99999983634
9.99999974105
9.99999967061
9.9999996275
9.99999961362
9.99999963044
9.99999967874
9.99999975875
9.99999986998
10.0000000114
10.0000001815
10.0000003781
10.0000005987
10.0000008407
10.0000011012
10.000001377
10.0000016652
10.0000019629
10.0000022672
10.0000025753
10.0000028849
10.0000031936
10.0000034997
10.0000038012
10.0000040967
10.0000043849
10.0000046648
10.0000049354
10.000005196
10.0000054461
10.0000056853
10.0000059132
10.0000061297
10.0000063348
10.0000065285
10.0000067108
10.0000068821
10.0000070426
10.0000071926
10.0000073324
10.0000074626
10.0000075837
10.000007696
10.0000078006
10.0000078972
10.0000079887
10.0000080702
10.0000081561
10.0000082101
10.0000083306
10.0000082556
9.99999999974
10.0000000075
10.0000000205
10.0000000381
10.0000000598
10.0000000845
10.0000001112
10.0000001392
10.0000001684
10.0000001983
10.0000002308
10.0000002659
10.0000003042
10.0000003459
10.0000003913
10.0000004408
10.0000004944
10.0000005525
10.0000006151
10.0000006821
10.0000007538
10.0000008297
10.0000009102
10.000000994
10.0000010828
10.0000011733
10.0000012696
10.0000013645
10.000001468
10.0000015644
10.0000016751
10.0000017692
10.0000018875
10.0000019753
10.0000021012
10.0000021796
10.000002311
10.0000023796
10.0000025106
10.0000025727
10.0000026943
10.0000027545
10.0000028581
10.0000029183
10.0000030001
10.0000030572
10.0000031184
10.0000031665
10.0000032098
10.0000032442
10.0000032705
10.0000032882
10.0000032966
10.0000032951
10.0000032829
10.0000032593
10.0000032236
10.0000031751
10.0000031134
10.0000030385
10.0000029506
10.0000028504
10.0000027387
10.0000026166
10.0000024856
10.0000023467
10.0000022012
10.0000020503
10.000001895
10.0000017365
10.0000015762
10.0000014156
10.0000012564
10.0000011006
10.0000009504
10.0000008079
10.0000006757
10.0000005561
10.0000004515
10.0000003643
10.0000002967
10.0000002508
10.0000002286
10.0000002314
10.0000002604
10.0000003162
10.0000003989
10.0000005081
10.0000006429
10.0000008018
10.0000009831
10.0000011847
10.0000014043
10.0000016393
10.0000018871
10.0000021451
10.0000024106
10.0000026813
10.0000029547
10.0000032285
10.0000035009
10.0000037699
10.0000040339
10.0000042916
10.0000045417
10.0000047833
10.0000050155
10.0000052377
10.0000054495
10.0000056505
10.0000058407
10.0000060199
10.0000061883
10.0000063461
10.0000064935
10.000006631
10.0000067589
10.0000068778
10.0000069884
10.0000070909
10.0000071871
10.0000072757
10.0000073615
10.0000074371
10.0000075207
10.0000075732
10.0000076858
10.0000076526
9.9999999997
10.0000000078
10.0000000214
10.0000000401
10.0000000635
10.0000000905
10.0000001195
10.0000001496
10.0000001806
10.0000002121
10.0000002448
10.00000028
10.0000003183
10.0000003602
10.0000004061
10.0000004563
10.0000005113
10.000000571
10.0000006357
10.0000007051
10.0000007796
10.0000008581
10.0000009422
10.0000010285
10.0000011216
10.0000012131
10.0000013154
10.0000014082
10.000001521
10.0000016088
10.0000017361
10.0000018099
10.0000019578
10.0000020067
10.0000021823
10.0000021969
10.0000024025
10.0000023817
10.000002608
10.0000025649
10.0000027881
10.0000027479
10.000002938
10.0000029243
10.0000030624
10.0000030812
10.0000031703
10.0000032084
10.000003265
10.0000033044
10.0000033418
10.0000033711
10.000003393
10.0000034065
10.0000034106
10.0000034042
10.0000033864
10.0000033563
10.0000033131
10.0000032566
10.0000031868
10.0000031042
10.0000030096
10.0000029042
10.0000027894
10.0000026665
10.0000025369
10.0000024018
10.0000022625
10.0000021205
10.0000019769
10.0000018337
10.0000016922
10.0000015549
10.0000014228
10.0000012978
10.0000011823
10.0000010779
10.0000009863
10.0000009088
10.0000008469
10.0000008014
10.0000007737
10.0000007642
10.0000007743
10.000000805
10.0000008566
10.0000009292
10.0000010226
10.000001136
10.0000012685
10.0000014187
10.0000015851
10.0000017658
10.0000019591
10.0000021627
10.0000023746
10.0000025928
10.0000028151
10.0000030397
10.0000032646
10.0000034882
10.0000037088
10.0000039251
10.0000041358
10.0000043399
10.0000045365
10.000004725
10.0000049049
10.0000050757
10.0000052373
10.0000053896
10.0000055328
10.0000056669
10.0000057924
10.0000059095
10.0000060189
10.0000061209
10.0000062166
10.0000063058
10.000006391
10.0000064699
10.000006549
10.0000066189
10.0000066994
10.0000067544
10.000006856
10.0000068654
9.99999999973
10.0000000083
10.0000000224
10.0000000418
10.0000000664
10.000000095
10.000000126
10.0000001581
10.0000001906
10.0000002237
10.0000002572
10.0000002928
10.0000003314
10.0000003736
10.00000042
10.000000471
10.000000527
10.000000588
10.0000006542
10.000000725
10.0000008015
10.0000008809
10.0000009674
10.0000010532
10.0000011499
10.0000012377
10.000001347
10.000001429
10.0000015576
10.0000016201
10.0000017819
10.0000018024
10.000002021
10.0000019681
10.0000022746
10.0000021137
10.0000025349
10.000002247
10.0000027815
10.0000023893
10.0000029842
10.0000025652
10.0000031208
10.0000027806
10.0000031996
10.0000030084
10.0000032592
10.0000032075
10.0000033335
10.0000033576
10.0000034225
10.0000034641
10.0000035045
10.0000035364
10.0000035592
10.0000035724
10.0000035741
10.0000035631
10.0000035385
10.0000034996
10.0000034458
10.0000033774
10.0000032951
10.0000031999
10.0000030932
10.0000029762
10.0000028506
10.000002718
10.0000025799
10.0000024385
10.000002295
10.0000021526
10.0000020117
10.0000018754
10.0000017465
10.0000016275
10.0000015206
10.0000014273
10.0000013489
10.0000012858
10.0000012387
10.0000012075
10.000001192
10.000001192
10.0000012073
10.0000012373
10.000001282
10.0000013408
10.0000014148
10.0000015036
10.0000016065
10.0000017226
10.0000018508
10.0000019898
10.0000021384
10.000002295
10.0000024582
10.0000026265
10.0000027981
10.0000029718
10.0000031459
10.0000033191
10.0000034903
10.0000036581
10.0000038216
10.0000039799
10.0000041323
10.0000042783
10.0000044174
10.0000045494
10.0000046742
10.0000047917
10.0000049021
10.0000050057
10.0000051028
10.0000051937
10.0000052794
10.0000053598
10.0000054367
10.0000055089
10.0000055804
10.0000056471
10.0000057177
10.0000057804
10.0000058565
10.0000059127
10.0000060059
10.0000060438
9.99999999963
10.0000000086
10.0000000229
10.0000000428
10.0000000683
10.0000000982
10.0000001309
10.0000001647
10.0000001988
10.0000002331
10.0000002679
10.000000304
10.000000343
10.0000003856
10.0000004326
10.0000004844
10.0000005414
10.0000006034
10.0000006711
10.0000007428
10.000000821
10.0000009005
10.0000009895
10.0000010729
10.0000011747
10.0000012546
10.0000013758
10.0000014376
10.000001595
10.0000016105
10.0000018392
10.0000017569
10.0000021202
10.0000018576
10.000002451
10.0000018982
10.0000028326
10.0000018873
10.0000032334
10.0000018761
10.0000035761
10.0000019561
10.0000037647
10.000002207
10.0000037615
10.0000026138
10.0000036455
10.0000030487
10.0000035593
10.0000033829
10.0000035785
10.0000035911
10.0000036688
10.0000037183
10.0000037633
10.0000037981
10.0000038205
10.0000038303
10.0000038257
10.0000038048
10.0000037667
10.0000037119
10.0000036409
10.0000035539
10.0000034504
10.0000033318
10.0000032005
10.00000306
10.0000029129
10.0000027622
10.0000026092
10.0000024548
10.0000023021
10.0000021547
10.0000020163
10.0000018902
10.0000017795
10.000001686
10.0000016111
10.0000015552
10.0000015182
10.0000014992
10.0000014974
10.0000015113
10.0000015395
10.0000015804
10.000001633
10.0000016953
10.0000017671
10.0000018468
10.0000019349
10.0000020317
10.0000021364
10.000002248
10.0000023654
10.0000024877
10.0000026138
10.0000027425
10.0000028728
10.0000030036
10.0000031337
10.0000032624
10.0000033885
10.0000035114
10.0000036302
10.0000037445
10.0000038537
10.0000039574
10.0000040556
10.0000041482
10.0000042351
10.0000043166
10.0000043929
10.0000044644
10.0000045317
10.0000045949
10.0000046555
10.0000047128
10.0000047697
10.0000048236
10.0000048805
10.0000049335
10.0000049952
10.0000050486
10.000005121
10.000005174
10.0000052647
10.0000053135
9.99999999963
10.000000009
10.0000000234
10.0000000435
10.0000000694
10.0000001002
10.000000134
10.0000001693
10.0000002048
10.0000002402
10.0000002761
10.0000003128
10.0000003523
10.0000003955
10.000000443
10.0000004955
10.0000005535
10.0000006163
10.0000006855
10.0000007579
10.0000008381
10.0000009172
10.0000010093
10.0000010894
10.0000011977
10.0000012674
10.0000014048
10.0000014399
10.000001638
10.0000015882
10.0000019152
10.0000016811
10.0000022699
10.000001673
10.0000027493
10.0000015109
10.0000033967
10.0000011682
10.0000042014
10.000000707
10.0000050308
10.0000003386
10.0000056127
10.0000003756
10.0000056629
10.0000010053
10.00000516
10.0000020434
10.0000044688
10.0000030253
10.0000040241
10.0000036439
10.0000039323
10.000003942
10.000004028
10.0000040859
10.0000041333
10.0000041685
10.0000041858
10.0000041818
10.0000041613
10.0000041287
10.0000040756
10.0000039846
10.0000038467
10.0000036711
10.0000034798
10.0000032945
10.000003126
10.0000029742
10.0000028293
10.0000026846
10.0000025376
10.0000023899
10.0000022462
10.0000021122
10.0000019933
10.0000018934
10.0000018151
10.0000017594
10.0000017261
10.0000017139
10.0000017211
10.0000017452
10.000001784
10.0000018352
10.0000018969
10.0000019671
10.0000020442
10.0000021266
10.0000022133
10.0000023031
10.000002396
10.0000024925
10.0000025916
10.0000026924
10.0000027939
10.0000028954
10.0000029959
10.0000030949
10.0000031915
10.0000032853
10.0000033755
10.0000034619
10.0000035439
10.0000036212
10.0000036938
10.0000037615
10.0000038244
10.0000038826
10.0000039364
10.000003986
10.0000040322
10.000004075
10.0000041157
10.000004154
10.0000041921
10.0000042285
10.0000042675
10.0000043044
10.0000043485
10.0000043883
10.0000044427
10.0000044863
10.0000045572
10.0000046033
10.000004698
10.0000047439
9.9999999996
10.0000000092
10.0000000238
10.000000044
10.0000000701
10.0000001012
10.0000001359
10.0000001723
10.000000209
10.0000002455
10.0000002822
10.0000003196
10.0000003596
10.0000004032
10.0000004512
10.0000005043
10.0000005631
10.0000006269
10.0000006974
10.0000007706
10.0000008527
10.0000009318
10.0000010269
10.0000011047
10.0000012189
10.0000012806
10.0000014321
10.000001445
10.0000016794
10.000001571
10.0000019921
10.0000016083
10.0000024339
10.0000014681
10.0000031139
10.0000010165
10.0000041803
10.0000001039
10.0000057542
9.99999868001
10.0000077691
9.99999699989
10.0000097511
9.99999578111
10.0000108003
9.99999596478
10.0000101537
9.99999789177
10.0000080795
10.0000006642
10.0000059035
10.0000028871
10.0000046803
10.0000040312
10.0000043914
10.0000044189
10.0000045099
10.0000045763
10.0000045942
10.0000046036
10.0000046583
10.0000047055
10.0000045696
10.000004094
10.000003299
10.0000023863
10.0000016223
10.0000011826
10.0000011003
10.000001276
10.0000015675
10.0000018524
10.0000020597
10.0000021693
10.0000021944
10.000002162
10.0000020998
10.0000020299
10.0000019678
10.0000019232
10.0000019017
10.0000019053
10.0000019335
10.0000019831
10.0000020497
10.0000021279
10.0000022128
10.0000023002
10.0000023875
10.0000024727
10.0000025553
10.0000026347
10.0000027117
10.000002786
10.0000028599
10.0000029338
10.0000030073
10.00000308
10.0000031513
10.0000032206
10.0000032876
10.0000033517
10.0000034123
10.0000034693
10.0000035221
10.0000035708
10.0000036151
10.000003655
10.0000036909
10.0000037228
10.0000037513
10.0000037765
10.0000037995
10.0000038202
10.0000038405
10.0000038593
10.0000038802
10.0000039
10.0000039255
10.0000039489
10.0000039838
10.0000040126
10.0000040629
10.0000040973
10.0000041701
10.0000042075
10.0000043114
10.0000043466
9.99999999966
10.0000000092
10.0000000242
10.0000000442
10.0000000701
10.0000001014
10.0000001366
10.0000001737
10.0000002113
10.0000002488
10.0000002861
10.0000003243
10.0000003647
10.0000004086
10.0000004571
10.0000005106
10.0000005702
10.0000006348
10.0000007064
10.0000007808
10.0000008643
10.0000009448
10.0000010412
10.0000011203
10.0000012356
10.0000012984
10.0000014511
10.0000014636
10.0000017025
10.0000015854
10.000002029
10.0000016003
10.0000025191
10.0000013785
10.0000033505
10.0000006797
10.0000048325
9.99999912684
10.0000073948
9.999996292
10.0000113999
9.99999203912
10.0000165942
9.99998720154
10.0000214336
9.99998403323
10.0000232069
9.99998518025
10.0000200955
9.99999089651
10.0000137908
9.99999783557
10.0000082741
10.0000026085
10.0000054685
10.0000046408
10.0000050205
10.0000049842
10.0000049372
10.0000052951
10.0000058638
10.0000052952
10.0000019031
9.99999517109
9.99998645797
9.99997832169
9.99997312818
9.99997198383
9.99997452241
9.9999794095
9.99998509573
9.99999037032
9.99999458326
9.99999758363
9.99999952736
10.0000006875
10.0000013299
10.0000016583
10.0000018058
10.0000018504
10.0000018357
10.0000017893
10.000001733
10.0000016864
10.0000016654
10.0000016801
10.0000017337
10.000001823
10.0000019404
10.0000020764
10.0000022216
10.0000023677
10.0000025091
10.0000026417
10.0000027637
10.000002875
10.000002977
10.0000030698
10.0000031541
10.0000032305
10.0000032993
10.000003361
10.0000034161
10.0000034646
10.000003507
10.0000035433
10.0000035739
10.0000035992
10.0000036196
10.0000036355
10.0000036478
10.0000036567
10.0000036638
10.0000036689
10.0000036745
10.000003679
10.0000036874
10.0000036947
10.0000037108
10.0000037237
10.000003753
10.000003773
10.0000038223
10.0000038486
10.0000039264
10.0000039542
10.000004071
10.0000040917
9.9999999997
10.0000000092
10.0000000245
10.0000000444
10.0000000701
10.0000001012
10.0000001364
10.000000174
10.0000002122
10.0000002505
10.0000002883
10.0000003271
10.0000003679
10.0000004121
10.0000004608
10.0000005147
10.0000005747
10.0000006403
10.0000007127
10.000000789
10.000000873
10.0000009567
10.0000010519
10.0000011374
10.0000012468
10.0000013233
10.0000014584
10.0000015019
10.0000016972
10.0000016488
10.0000019962
10.000001707
10.0000024407
10.0000015427
10.0000032321
10.0000008574
10.0000048016
9.99999905228
10.0000079659
9.99999510454
10.0000139397
9.9999877488
10.0000237975
9.99997651918
10.0000368563
9.99996385104
10.0000485331
9.9999563987
10.0000510547
9.99996117416
10.0000406655
9.99997661068
10.0000244991
9.99999235324
10.0000119815
10.0000026617
10.0000060955
10.0000046479
10.000006131
10.0000095449
10.0000069663
9.99998496087
9.9999348412
9.99986148183
9.99978272578
9.99972044837
9.99969031918
9.99969637907
9.99973176058
9.99978381412
9.99983959829
9.99988962868
9.99992913646
9.99995734979
9.99997590113
9.99998730623
9.9999939793
9.99999780318
10.0000000598
10.000001521
10.0000025847
10.0000034097
10.0000040305
10.0000044396
10.0000046371
10.0000046474
10.0000045164
10.0000042997
10.0000040499
10.0000038085
10.0000036026
10.0000034455
10.0000033399
10.0000032812
10.000003261
10.0000032699
10.0000032986
10.0000033406
10.0000033889
10.0000034386
10.0000034859
10.0000035286
10.0000035651
10.0000035949
10.0000036177
10.0000036335
10.0000036431
10.0000036466
10.0000036453
10.0000036396
10.000003631
10.0000036195
10.0000036078
10.0000035947
10.0000035845
10.0000035737
10.00000357
10.0000035649
10.0000035733
10.0000035763
10.0000036027
10.0000036142
10.000003666
10.0000036832
10.0000037695
10.000003785
10.0000039175
10.0000039182
9.99999999971
10.0000000093
10.0000000243
10.0000000444
10.0000000696
10.0000001004
10.0000001354
10.0000001731
10.0000002118
10.0000002504
10.0000002889
10.0000003282
10.0000003693
10.0000004137
10.0000004624
10.0000005167
10.0000005769
10.0000006436
10.0000007164
10.000000795
10.0000008789
10.0000009672
10.0000010599
10.0000011546
10.0000012543
10.0000013516
10.0000014589
10.0000015515
10.0000016748
10.0000017436
10.0000019152
10.0000018998
10.0000022267
10.000001938
10.0000027492
10.0000016262
10.0000038649
10.0000003669
10.0000065172
9.99999677567
10.0000126827
9.99998820802
10.0000256543
9.99997101419
10.0000487826
9.99994335943
10.0000807068
9.99991174135
10.0001084594
9.99989524255
10.0001102687
9.99991150599
10.0000810386
9.99994805768
10.0000459496
9.99998235838
10.0000132501
10.0000038873
10.0000232303
10.0000150789
9.99990179401
9.99960629081
9.99912096639
9.99853207364
9.99798390694
9.99761247664
9.99749357243
9.99762520244
9.99794344174
9.99835795265
9.99878305221
9.99915796887
9.99945294929
9.99966424006
9.99980394349
9.99989008294
9.99993989727
9.9999668795
9.99998044265
9.99998672908
9.99998956142
9.9999911663
9.99999267549
9.99999449927
9.99999662617
9.99999885548
10.0000009554
10.0000027491
10.0000041438
10.000005124
10.0000057291
10.0000060279
10.000006098
10.0000060121
10.0000058306
10.0000055998
10.000005352
10.0000051087
10.0000048828
10.00000468
10.0000045015
10.0000043466
10.0000042129
10.0000040976
10.0000039979
10.000003911
10.000003835
10.0000037675
10.0000037078
10.0000036538
10.0000036065
10.0000035631
10.0000035269
10.0000034931
10.000003469
10.000003445
10.0000034355
10.0000034215
10.0000034303
10.0000034256
10.0000034578
10.0000034592
10.0000035214
10.0000035219
10.0000036231
10.0000036094
10.0000037615
10.0000037136
9.99999999974
10.0000000094
10.0000000244
10.0000000444
10.0000000696
10.0000000997
10.0000001342
10.0000001717
10.0000002104
10.0000002493
10.0000002883
10.000000328
10.0000003693
10.0000004138
10.0000004624
10.0000005169
10.0000005773
10.0000006449
10.0000007182
10.000000799
10.0000008833
10.0000009756
10.0000010671
10.0000011696
10.000001263
10.0000013763
10.0000014641
10.0000015942
10.0000016637
10.0000018252
10.0000018545
10.0000020739
10.0000020329
10.0000023363
10.000002223
10.0000025496
10.0000025778
10.0000024248
10.0000036757
10.000000934
10.0000072902
9.99999519962
10.0000178684
9.9999788074
10.0000439936
9.99994148273
10.0000960778
9.99987601576
10.0001729334
9.99979857322
10.0002380764
9.99976531851
10.000229187
9.99981492314
10.0001650164
9.99987518787
10.0000837919
10.0000256273
10.000066274
9.999596015
9.99822360431
9.9957152424
9.99233146891
9.9887617014
9.98582537855
9.98414201431
9.98396161728
9.98514235897
9.98727463647
9.98986146348
9.9924521383
9.99472894188
9.99653348958
9.99784356104
9.99872509134
9.99928143731
9.99961498009
9.99980698936
9.99991324737
9.99996861227
9.99999402393
10.0000022458
10.000001377
9.99999663682
9.99999123716
9.99998690882
9.99998433219
9.99998352122
9.99998414056
9.99998573406
9.99998786485
9.99999018318
9.99999244523
9.99999450407
9.9999962886
9.99999778049
9.99999899393
9.99999996023
10.0000007178
10.0000013047
10.0000017555
10.0000020997
10.0000023618
10.0000025606
10.0000027119
10.0000028263
10.0000029139
10.0000029794
10.0000030305
10.0000030672
10.0000030979
10.0000031173
10.000003138
10.0000031469
10.0000031653
10.0000031671
10.0000031902
10.0000031852
10.0000032199
10.0000032045
10.0000032582
10.0000032231
10.0000033043
10.0000032325
10.0000033517
10.0000032154
10.0000033864
10.0000031461
9.99999999973
10.0000000093
10.000000024
10.0000000438
10.0000000689
10.0000000989
10.000000133
10.0000001701
10.0000002087
10.0000002479
10.0000002871
10.0000003269
10.0000003682
10.0000004127
10.0000004613
10.0000005159
10.0000005765
10.0000006448
10.0000007189
10.0000008013
10.0000008871
10.0000009818
10.0000010752
10.0000011806
10.0000012757
10.000001393
10.0000014811
10.000001618
10.0000016823
10.0000018617
10.0000018645
10.0000021434
10.0000019982
10.0000025071
10.0000020243
10.0000030362
10.0000018596
10.0000038268
10.0000014838
10.0000047343
10.0000014541
10.0000044087
10.000004601
9.99999757573
10.0000200207
9.99996982172
10.0000688072
9.99989328212
10.0001830849
9.99973947533
10.0003714757
9.99954672775
10.0005175263
9.99951313588
10.0004367437
9.99957571872
10.0005273498
9.99993766803
9.99890180437
9.9936580105
9.98352143128
9.96847235912
9.9509252109