/*--------------------------------*- C++ -*----------------------------------*\
  =========                 |
  \\      /  F ield         | OpenFOAM: The Open Source CFD Toolbox
   \\    /   O peration     | Website:  https://openfoam.org
    \\  /    A nd           | Version:  7
     \\/     M anipulation  |
\*---------------------------------------------------------------------------*/
FoamFile
{
    version     2.0;
    format      ascii;
    class       volScalarField;
    location    "1320";
    object      p;
}
// * * * * * * * * * * * * * * * * * * * * * * * * * * * * * * * * * * * * * //

dimensions      [0 2 -2 0 0 0 0];

internalField   nonuniform List<scalar> 
8192
(
0.000638300958579
0.000466761863668
0.000381173220274
0.000337097445468
0.000312114021728
0.000296917811871
0.000287088182932
0.00028037919476
0.00027558338156
0.000272016621514
0.000269271726085
0.000267095078508
0.000265322144346
0.000263842301975
0.00026257885614
0.000261477222182
0.000260497675835
0.000259610748367
0.000258794207989
0.00025803102337
0.000257307953231
0.000256614545693
0.00025594241205
0.000255284687937
0.000254635624433
0.000253990270103
0.000253344216848
0.000252693389936
0.000252033868969
0.000251361728973
0.000250672892578
0.000249962986672
0.000249227198129
0.000248460124111
0.000247655613358
0.00024680659578
0.000245904898875
0.000244941051054
0.000243904074075
0.000242781269706
0.000241558009537
0.000240217541666
0.000238740833744
0.000237106478252
0.000235290692129
0.00023326744793
0.000231008775623
0.00022848527119
0.000225666838159
0.000222523670244
0.000219027458005
0.000215152773159
0.00021087855628
0.000206189613541
0.000201078020194
0.000195544332908
0.000189598524648
0.000183260566994
0.000176560590187
0.000169538553506
0.000162243369315
0.000154731460478
0.000147064802843
0.000139308602699
0.000131528847177
0.000123790001823
0.000116153088255
0.000108674261054
0.000101403903548
9.43861760063e-05
8.76588849454e-05
8.12535230507e-05
7.51953506712e-05
6.95034402232e-05
6.41906662803e-05
5.92636802448e-05
5.47229457816e-05
5.05629210556e-05
4.67724545588e-05
4.33354206188e-05
4.02315720921e-05
3.74375461978e-05
3.49279351616e-05
3.26763299303e-05
3.06562593366e-05
2.88419718583e-05
2.72090345923e-05
2.5734748379e-05
2.43983956973e-05
2.31813483611e-05
2.20670659913e-05
2.10410155582e-05
2.00905387135e-05
1.92046887941e-05
1.83740542503e-05
1.7590580605e-05
1.68473990806e-05
1.61386669465e-05
1.54594222859e-05
1.4805454241e-05
1.41731886548e-05
1.35595883351e-05
1.29620667334e-05
1.23784136513e-05
1.18067315066e-05
1.12453807413e-05
1.06929330281e-05
1.01481310626e-05
9.6098538634e-06
9.07708666415e-06
8.54889464705e-06
8.02439997635e-06
7.50276183314e-06
6.98315949811e-06
6.46477901357e-06
5.94680471565e-06
5.42841812926e-06
4.9088087292e-06
4.38720450304e-06
3.86293634386e-06
3.33556145806e-06
2.80509223725e-06
2.27241930968e-06
1.74010583131e-06
1.21392952014e-06
7.06043908619e-07
2.42751396835e-07
-4.46705805946e-08
0.000489376500472
0.000425873471284
0.000376208145739
0.000343588020662
0.000321699935097
0.000306550369246
0.000295758842128
0.000287859573014
0.00028192694848
0.000277362528744
0.000273770359841
0.000270882443773
0.000268513364487
0.000266532148338
0.000264844472685
0.000263381190505
0.000262090777795
0.00026093426208
0.00025988174961
0.000258910001804
0.000258000712804
0.00025713926357
0.000256313804999
0.000255514571439
0.000254733357434
0.000253963111163
0.000253197611598
0.000252431205144
0.000251658585746
0.000250874605294
0.000250074103457
0.000249251749528
0.000248401890212
0.000247518398615
0.00024659452077
0.000245622717219
0.000244594498408
0.000243500254161
0.000242329079508
0.000241068601583
0.000239704815515
0.000238221941101
0.000236602316576
0.000234826350709
0.000232872559164
0.000230717714703
0.000228337141973
0.000225705184833
0.000222795865778
0.000219583742297
0.000216044944281
0.000212158352567
0.000207906855642
0.000203278604861
0.000198268182105
0.000192877598074
0.000187117050184
0.000181005379833
0.000174570174583
0.000167847462915
0.00016088095686
0.000153720825211
0.000146422037416
0.00013904239977
0.000131640480129
0.000124273650136
0.000116996441203
0.000109859305624
0.000102907798823
9.61821351306e-05
8.97170121556e-05
8.35415844541e-05
7.76794842362e-05
7.21488270688e-05
6.69621889424e-05
6.2126585204e-05
5.76435114031e-05
5.35091138488e-05
4.97145419093e-05
4.62465009329e-05
4.30879853436e-05
4.02191381184e-05
3.7618163744e-05
3.52622195354e-05
3.31282220001e-05
3.11935250317e-05
2.94364487919e-05
2.78366575739e-05
2.63753990915e-05
2.50356260864e-05
2.38020245292e-05
2.26609724706e-05
2.16004510638e-05
2.06099257025e-05
1.9680211328e-05
1.88033323626e-05
1.79723845923e-05
1.71814038271e-05
1.64252442128e-05
1.569946766e-05
1.50002448391e-05
1.43242675277e-05
1.3668671665e-05
1.30309702328e-05
1.24089949643e-05
1.18008458639e-05
1.12048475491e-05
1.06195115109e-05
1.00435034828e-05
9.47561524726e-06
8.91474035443e-06
8.35985342333e-06
7.80999293362e-06
7.26424774712e-06
6.72174805319e-06
6.18166210714e-06
5.64320113415e-06
5.10563631933e-06
4.56833421267e-06
4.03082070308e-06
3.49288986177e-06
2.95478401605e-06
2.41748820279e-06
1.88321142017e-06
1.35617886738e-06
8.43991925738e-07
3.59432093062e-07
6.68275419112e-09
0.000406400988256
0.000383748588915
0.000357780591313
0.000336572332049
0.000320482188773
0.000308198932098
0.000298701886241
0.000291262784036
0.000285359326136
0.000280612245208
0.000276743301851
0.000273546573697
0.000270868369063
0.000268592986584
0.000266632545239
0.000264919682082
0.000263402279992
0.000262039636421
0.000260799658228
0.000259656790236
0.000258590471247
0.000257583971605
0.000256623508538
0.000255697565065
0.000254796358899
0.000253911422475
0.000253035265085
0.000252161095008
0.000251282587589
0.000250393686498
0.000249488427344
0.000248560776859
0.000247604481825
0.000246612923173
0.000245578971843
0.000244494844038
0.000243351954698
0.000242140769356
0.000240850656199
0.000239469742242
0.000237984780125
0.000236381035225
0.0002346422065
0.000232750398615
0.000230686166956
0.000228428660479
0.000225955888783
0.000223245137951
0.00022027355306
0.000217018892704
0.000213460442533
0.000209580052753
0.000205363242898
0.000200800301529
0.000195887303164
0.000190626970691
0.000185029324271
0.00017911206981
0.000172900684897
0.000166428157687
0.000159734333393
0.000152864840059
0.000145869615189
0.000138801136904
0.000131712544125
0.000124655869702
0.000117680578164
0.000110832477249
0.000104153007933
9.7678871081e-05
9.14418882761e-05
8.54689848153e-05
7.97822014592e-05
7.43986811784e-05
6.93306221313e-05
6.45852284111e-05
6.01647173311e-05
5.60664488332e-05
5.22832265837e-05
4.88037876154e-05
4.56134593863e-05
4.26949320037e-05
4.00290767607e-05
3.75957419579e-05
3.53744696313e-05
3.33450963219e-05
3.14882213156e-05
2.97855428257e-05
2.8220074387e-05
2.67762603241e-05
2.54400113979e-05
2.41986810768e-05
2.30410004585e-05
2.19569867462e-05
2.09378369264e-05
1.99758153439e-05
1.90641413355e-05
1.81968810723e-05
1.73688461841e-05
1.65755005952e-05
1.58128761626e-05
1.50774971498e-05
1.436631319e-05
1.36766401784e-05
1.30061084057e-05
1.23526172114e-05
1.17142954338e-05
1.10894669902e-05
1.04766209865e-05
9.87438585584e-06
9.28150714323e-06
8.69682870312e-06
8.11927725654e-06
7.54785049856e-06
6.98160925685e-06
6.41967463566e-06
5.86123166603e-06
5.30554181135e-06
4.75196783314e-06
4.20001617187e-06
3.64940436751e-06
3.10016455967e-06
2.5527994989e-06
2.00851541742e-06
1.46956478907e-06
9.39662226806e-07
4.23692736523e-07
2.08630105681e-08
0.000361812888946
0.00035344539229
0.00033927738351
0.000325510268497
0.000314105777317
0.000304851997827
0.000297295640035
0.000291068216375
0.000285891506292
0.000281552933024
0.000277886744454
0.000274761878091
0.000272073870766
0.000269739074896
0.00026769028915
0.000265873354491
0.000264244466757
0.000262768045737
0.000261415044072
0.000260161604829
0.00025898799483
0.000257877755175
0.00025681702225
0.000255793982097
0.000254798428884
0.000253821404658
0.000252854901177
0.000251891609002
0.000250924705175
0.000249947669255
0.000248954118831
0.000247937659611
0.000246891745302
0.000245809543464
0.000244683804411
0.000243506731062
0.000242269848597
0.000240963873834
0.000239578585562
0.000238102698815
0.000236523748162
0.00023482798789
0.000233000320226
0.000231024266616
0.000228882001193
0.000226554469269
0.000224021616148
0.000221262751056
0.000218257066027
0.000214984318373
0.000211425667659
0.000207564635424
0.000203388132904
0.000198887485079
0.000194059374568
0.000188906637642
0.000183438861823
0.000177672749743
0.000171632217657
0.000165348187435
0.000158858017754
0.000152204524634
0.000145434587887
0.000138597436213
0.000131742808526
0.000124919244766
0.000118172720321
0.000111545670061
0.000105076388603
9.87987641031e-05
9.27422280569e-05
8.69317984179e-05
8.13881182819e-05
7.61274388851e-05
7.11615436334e-05
6.64976518102e-05
6.21383698946e-05
5.80817654734e-05
5.43216198e-05
5.08478773378e-05
4.76472681027e-05
4.4704045264e-05
4.20007645904e-05
3.95190348873e-05
3.72401844779e-05
3.51458106327e-05
3.32181999746e-05
3.14406243188e-05
2.97975267822e-05
2.82746179143e-05
2.68589024493e-05
2.55386556445e-05
2.43033652807e-05
2.31436521788e-05
2.20511790059e-05
2.10185544939e-05
2.00392380265e-05
1.91074478709e-05
1.82180750672e-05
1.73666040728e-05
1.65490406145e-05
1.57618467627e-05
1.50018829601e-05
1.42663565665e-05
1.35527763889e-05
1.2858912634e-05
1.21827617241e-05
1.1522515449e-05
1.08765339801e-05
1.02433223399e-05
9.62151000077e-06
9.00983338392e-06
8.40712114376e-06
7.81228226143e-06
7.22429714247e-06
6.64221213349e-06
6.06513815652e-06
5.49225454729e-06
4.92281972667e-06
4.35619114482e-06
3.79185820112e-06
3.22949384763e-06
2.66903337145e-06
2.1107901754e-06
1.55559984002e-06
1.00484388947e-06
4.59536014208e-07
2.32787289009e-08
0.000334158345915
0.000332215584628
0.000324441540092
0.000315271745322
0.000307010824227
0.00029999583521
0.000294069633148
0.000289026840101
0.000284699115615
0.000280956807912
0.000277698681496
0.000274843514129
0.000272324694508
0.000270086840136
0.000268083560554
0.000266275848282
0.00026463083049
0.000263120751075
0.000261722118927
0.000260414987835
0.000259182346167
0.000258009599853
0.000256884134783
0.000255794946395
0.000254732325534
0.00025368759173
0.000252652862895
0.000251620855341
0.000250584710481
0.000249537841097
0.000248473790976
0.000247386105257
0.000246268208102
0.000245113284847
0.000243914166383
0.000242663214014
0.000241352203713
0.000239972209474
0.000238513486446
0.000236965355924
0.000235316096071
0.000233552844673
0.00023166152333
0.000229626796368
0.000227432082183
0.000225059639308
0.000222490753257
0.000219706051477
0.000216685970486
0.000213411389161
0.000209864423882
0.00020602935625
0.000201893637237
0.000197448891538
0.00019269184075
0.000187625076983
0.000182257642846
0.000176605394818
0.000170691130377
0.000164544440353
0.000158201218045
0.000151702743189
0.000145094300957
0.000138423417927
0.000131737947245
0.000125084319594
0.000118506218462
0.000112043693813
0.000105732673033
9.96048246759e-05
9.36876308137e-05
8.80045209863e-05
8.25749572682e-05
7.74144199124e-05
7.25342967088e-05
6.79417255337e-05
6.36394743576e-05
5.9625951578e-05
5.58954154182e-05
5.24384039596e-05
4.9242355755e-05
4.62923524475e-05
4.35718989434e-05
4.1063663199e-05
3.87501189894e-05
3.66140613721e-05
3.46389880826e-05
3.28093567981e-05
3.11107374424e-05
2.95298818955e-05
2.80547326633e-05
2.66743891577e-05
2.53790465727e-05
2.41599187593e-05
2.30091533701e-05
2.19197450306e-05
2.08854503498e-05
1.990070716e-05
1.89605593459e-05
1.80605879197e-05
1.71968485143e-05
1.63658151618e-05
1.55643300321e-05
1.47895586987e-05
1.40389504504e-05
1.33102031553e-05
1.2601232195e-05
1.1910143021e-05
1.12352069227e-05
1.05748396445e-05
9.9275825456e-06
9.29208605078e-06
8.66709520895e-06
8.05143724853e-06
7.44401111035e-06
6.84377905599e-06
6.24976061177e-06
5.66102935357e-06
5.07671342007e-06
4.49600125114e-06
3.91815495957e-06
3.34253481784e-06
2.76863829018e-06
2.196149769e-06
1.62495832754e-06
1.05494811126e-06
4.84962028542e-07
2.38431711868e-08
0.000315778706368
0.000316705808186
0.000312691472739
0.000306580290012
0.000300504861874
0.000295087281023
0.000290378182149
0.000286282704612
0.000282694271425
0.000279524409122
0.000276703759132
0.000274177516123
0.000271901225129
0.000269837879228
0.000267956067187
0.000266228789552
0.000264632662991
0.000263147343178
0.00026175507274
0.000260440305597
0.000259189383094
0.000257990249451
0.000256832199676
0.000255705655552
0.000254601966314
0.000253513232448
0.000252432144603
0.000251351839067
0.000250265768824
0.000249167585065
0.000248051025661
0.000246909809659
0.000245737535623
0.000244527581935
0.000243273007368
0.000241966450562
0.000240600027374
0.000239165225565
0.000237652797053
0.000236052648949
0.000234353736178
0.00023254396059
0.000230610084536
0.000228537670791
0.000226311065765
0.000223913448528
0.000221326973677
0.000218533039525
0.000215512711924
0.000212247325038
0.000208719260993
0.000204912881253
0.000200815549479
0.000196418659721
0.000191718577492
0.000186717420111
0.000181423638176
0.000175852390962
0.000170025712872
0.000163972437443
0.00015772779206
0.000151332535645
0.000144831542968
0.000138271898454
0.000131700791877
0.000125163642856
0.000118702779746
0.000112356634812
0.000106159371936
0.000100140904666
9.43271244542e-05
8.87401515436e-05
8.33984787318e-05
7.83169600272e-05
7.35066552618e-05
6.89745936538e-05
6.47235640521e-05
6.07520515511e-05
5.70544080148e-05
5.36212821972e-05
5.04402695902e-05
4.74966957831e-05
4.47744312772e-05
4.22566481735e-05
3.9926458516e-05
3.77674070748e-05
3.57638184758e-05
3.39010158959e-05
3.21654364554e-05
3.05446695328e-05
2.90274413895e-05
2.76035650332e-05
2.62638696096e-05
2.50001195314e-05
2.38049302881e-05
2.26716854298e-05
2.15944574551e-05
2.05679341196e-05
1.9587350863e-05
1.86484295319e-05
1.77473232418e-05
1.6880567039e-05
1.60450339125e-05
1.52378956721e-05
1.4456588194e-05
1.36987805582e-05
1.29623476253e-05
1.22453456388e-05
1.1545990475e-05
1.08626382034e-05
1.01937676555e-05
9.5379647441e-06
8.89390830811e-06
8.26035731233e-06
7.63613928141e-06
7.02013993289e-06
6.41129409229e-06
5.8085781595e-06
5.21100467011e-06
4.61761985445e-06
4.02750538226e-06
3.43978501603e-06
2.85363331956e-06
2.26826950154e-06
1.68287416027e-06
1.09624866804e-06
5.05853026703e-07
2.48368705607e-08
0.00030287364817
0.000305035257376
0.000303268611884
0.000299274608291
0.000294805169559
0.000290578043167
0.000286783152946
0.000283415297005
0.000280417414582
0.000277729307048
0.00027530012509
0.000273089186483
0.000271063930566
0.000269197752468
0.000267468359172
0.000265856648759
0.000264345971385
0.000262921637096
0.00026157057405
0.000260281075853
0.000259042601697
0.000257845608701
0.000256681405171
0.000255542018635
0.000254420075162
0.000253308690453
0.000252201362965
0.000251091875646
0.000249974206319
0.000248842441075
0.000247690689971
0.000246513004697
0.000245303296883
0.00024405525579
0.000242762264117
0.000241417310764
0.000240012899526
0.000238540952951
0.000236992711049
0.000235358625339
0.000233628249895
0.000231790133058
0.000229831716299
0.000227739250923
0.000225497748875
0.000223090990856
0.000220501622506
0.000217711375632
0.00021470145309
0.000211453108466
0.000207948430907
0.00020417131061
0.000200108517987
0.000195750794473
0.000191093843845
0.000186139139889
0.000180894518611
0.000175374569874
0.000169600851043
0.000163601899779
0.000157412937986
0.000151075075418
0.000144633826406
0.000138136961225
0.000131632079221
0.000125164517119
0.000118776011397
0.000112503982536
0.000106381291414
0.000100436443021
9.46940132786e-05
8.91750450166e-05
8.3897258755e-05
7.8875040525e-05
7.41192269447e-05
6.96367651768e-05
6.54303876339e-05
6.14984595348e-05
5.78351129925e-05
5.4430697737e-05
5.12724930892e-05
4.83455688004e-05
4.56336673367e-05
4.31200017712e-05
4.07879044222e-05
3.86213035223e-05
3.66050369401e-05
3.47250298062e-05
3.29683688708e-05
3.13233047413e-05
2.97792077627e-05
2.83264969762e-05
2.69565558148e-05
2.56616435673e-05
2.44348082205e-05
2.3269803915e-05
2.21610146654e-05
2.11033849983e-05
2.00923575482e-05
1.91238173017e-05
1.8194042001e-05
1.72996581349e-05
1.64376019292e-05
1.5605084766e-05
1.47995624974e-05
1.40187081627e-05
1.3260387665e-05
1.25226380056e-05
1.1803647719e-05
1.11017391839e-05
1.04153525243e-05
9.74303083957e-06
9.08340653797e-06
8.43518857824e-06
7.79715046611e-06
7.16811890863e-06
6.54696310591e-06
5.93258475755e-06
5.32390895024e-06
4.71987605968e-06
4.11943428604e-06
3.52153044896e-06
2.9250905692e-06
2.32896518955e-06
1.73177467166e-06
1.1315162798e-06
5.24744171429e-07
2.7388725462e-08
0.00029340090795
0.000296032481522
0.000295617899813
0.000293108055736
0.000289854789348
0.000286554382127
0.000283473121577
0.000280673908838
0.000278142846721
0.000275844678704
0.000273743249419
0.000271807438943
0.000270011811697
0.000268335699734
0.000266762066573
0.000265276557121
0.000263866798344
0.000262521910571
0.000261232170741
0.00025998877732
0.000258783680401
0.000257609452582
0.00025645918507
0.00025532639948
0.000254204969425
0.000253089051341
0.000251973012982
0.000250851366129
0.00024971870638
0.000248569650753
0.000247398775188
0.00024620055131
0.000244969281551
0.000243699031636
0.000242383559358
0.000241016238529
0.00023958997697
0.000238097127464
0.000236529390821
0.000234877710693
0.000233132160721
0.00023128182625
0.000229314685613
0.000227217500224
0.000224975729016
0.000222573491138
0.000219993610856
0.000217217788375
0.000214226945791
0.00021100179241
0.000207523631572
0.000203775388782
0.000199742785038
0.000195415529968
0.000190788394805
0.000185862063136
0.0001806437349
0.000175147530611
0.000169394757255
0.000163414033655
0.000157241146311
0.000150918359045
0.000144492845799
0.00013801417715
0.000131531390496
0.00012509057857
0.000118733539987
0.000112497179443
0.000106413404956
0.000100509557788
9.48090989398e-05
8.9332183099e-05
8.40959400262e-05
7.91144547537e-05
7.4398474442e-05
6.99549314524e-05
6.57864665557e-05
6.18911652927e-05
5.82626567791e-05
5.48906089807e-05
5.1761541283e-05
4.88598042929e-05
4.61685643277e-05
4.3670665538e-05
4.13493000309e-05
3.91884706311e-05
3.71732680581e-05
3.52900020357e-05
3.35262287927e-05
3.18707119641e-05
3.03133453086e-05
2.88450571247e-05
2.74577092111e-05
2.61439980435e-05
2.48973623085e-05
2.37118986872e-05
2.25822864217e-05
2.15037204396e-05
2.04718524169e-05
1.94827389951e-05
1.85327963304e-05
1.76187601781e-05
1.67376507816e-05
1.58867419073e-05
1.50635334423e-05
1.42657270451e-05
1.34912043993e-05
1.27380076783e-05
1.20043218732e-05
1.12884586764e-05
1.05888416464e-05
9.90399240509e-06
9.23251764521e-06
8.57309674851e-06
7.92446983695e-06
7.28542610371e-06
6.65479228185e-06
6.03142108514e-06
5.41417931653e-06
4.80193489678e-06
4.1935408551e-06
3.58781129262e-06
2.98347718333e-06
2.37909427836e-06
1.77284597952e-06
1.16214656553e-06
5.4296230003e-07
3.21458985982e-08
0.000286196155715
0.000288942165511
0.000289339860814
0.000287874322664
0.000285552746701
0.0002829928376
0.000280488719746
0.000278148638561
0.000275993968233
0.00027401211487
0.00027218060549
0.000270476671214
0.000268880349735
0.000267374978785
0.00026594679119
0.000264584308005
0.000263277780277
0.000262018746194
0.000260799701709
0.000259613862175
0.000258454990547
0.000257317271751
0.000256195217972
0.000255083594139
0.000253977356738
0.000252871601818
0.000251761513358
0.000250642312995
0.000249509218063
0.000248357395264
0.000247181913334
0.000245977693658
0.000244739457974
0.000243461672155
0.000242138485017
0.000240763660908
0.000239330504736
0.000237831777968
0.000236259604129
0.000234605362565
0.000232859569802
0.000231011749216
0.000229050292211
0.000226962318407
0.000224733549243
0.00022234821931
0.000219789062776
0.000217037426467
0.000214073572016
0.000210877228757
0.000207428436364
0.000203708664636
0.000199702123195
0.000195397102858
0.000190787165401
0.000185872050682
0.000180658285146
0.000175159585551
0.000169397178176
0.000163400067365
0.000157205109437
0.00015085650913
0.000144404180716
0.000137900708844
0.000131397644887
0.000124942647464
0.000118578172978
0.000112341045213
0.000106262489739
0.000100368841089
9.46825832176e-05
8.92231388245e-05
8.40072151313e-05
7.90487689786e-05
7.43586152021e-05
6.99437687028e-05
6.58067666838e-05
6.19452635513e-05
5.83520956094e-05
5.50158515908e-05
5.19218340005e-05
4.90532077036e-05
4.6392125517e-05
4.39206771642e-05
4.16215884849e-05
3.94786676699e-05
3.74770382302e-05
3.56032147112e-05
3.38450753579e-05
3.21917753741e-05
3.06336318349e-05
2.91620002269e-05
2.7769154247e-05
2.64481748251e-05
2.51928508035e-05
2.39975916753e-05
2.28573517176e-05
2.17675643834e-05
2.07240856696e-05
1.97231452052e-05
1.87613039174e-05
1.78354172647e-05
1.69426031719e-05
1.6080213923e-05
1.52458113883e-05
1.44371450498e-05
1.3652132374e-05
1.28888411431e-05
1.21454734072e-05
1.14203507655e-05
1.07119007115e-05
1.00186438088e-05
9.33918147483e-06
8.67218416739e-06
8.0163797631e-06
7.3705419003e-06
6.73347799599e-06
6.10401649392e-06
5.48099255036e-06
4.86323058634e-06
4.24952045943e-06
3.63858049665e-06
3.0289936029e-06
2.41908978e-06
1.80672915056e-06
1.18892521769e-06
5.61280955352e-07
3.95298609677e-08
0.000280563261088
0.000283262025854
0.000284143243453
0.000283412740133
0.000281806823802
0.000279845625413
0.000277819143553
0.000275860807968
0.000274018129043
0.000272297922051
0.000270690472829
0.000269181035517
0.00026775472488
0.00026639826081
0.000265100332874
0.000263851428498
0.000262643502526
0.000261469643153
0.000260323787749
0.000259200498671
0.000258094792718
0.000257002013144
0.00025591773334
0.000254837683045
0.000253757691795
0.000252673640674
0.00025158141917
0.000250476883566
0.000249355823431
0.000248213924704
0.000247046731548
0.000245849605842
0.000244617683256
0.000243345824799
0.000242028562619
0.000240660038609
0.000239233934197
0.000237743389362
0.000236180908764
0.000234538252735
0.00023280631113
0.000230974958971
0.000229032894937
0.000226967467961
0.000224764504507
0.000222408160702
0.000219880839823
0.000217163235533
0.000214234579466
0.000211073177891
0.000207657300793
0.000203966424402
0.000199982727841
0.000195692640533
0.000191088192792
0.0001861679923
0.000180937819995
0.000175411008011
0.000169608807358
0.000163560836602
0.000157305468278
0.000150889654497
0.000144367286538
0.00013779541197
0.00013122931675
0.000124719052957
0.00011830831864
0.000112034289191
0.000105927729581
0.00010001404306
9.43148236843e-05
8.88488967671e-05
8.36327011404e-05
7.86802373427e-05
7.40025610933e-05
6.96068858996e-05
6.54956365123e-05
6.16658626004e-05
5.81092725801e-05
5.4812921244e-05
5.17603828402e-05
4.89331305444e-05
4.63118480108e-05
4.38774872532e-05
4.16119998565e-05
3.94987579814e-05
3.75227299288e-05
3.56704874834e-05
3.39301131884e-05
3.22910583139e-05
3.07439848168e-05
2.92806106908e-05
2.78935684736e-05
2.65762806828e-05
2.53228525782e-05
2.41279809643e-05
2.29868770698e-05
2.1895201413e-05
2.08490086892e-05
1.98447009651e-05
1.88789877221e-05
1.79488515404e-05
1.70515184323e-05
1.61844320091e-05
1.53452308159e-05
1.45317282839e-05
1.37418948437e-05
1.29738418169e-05
1.222580676e-05
1.14961399773e-05
1.07832919528e-05
1.00858014707e-05
9.40228420529e-06
8.73142155567e-06
8.07194947467e-06
7.42264697811e-06
6.7823238875e-06
6.14980709514e-06
5.52392412363e-06
4.90348175122e-06
4.28723556605e-06
3.67384276688e-06
3.06178429592e-06
2.44923265806e-06
1.83383048445e-06
1.21234302216e-06
5.80181358554e-07
4.9815230863e-08
0.00027606738506
0.000278649358694
0.000279811799318
0.000279597903249
0.000278541111035
0.000277065625443
0.000275439162217
0.000273804748306
0.00027222714986
0.00027072856523
0.000269310563339
0.000267966008976
0.000266684986081
0.000265457472591
0.000264274376924
0.000263127802559
0.000262010981796
0.000260918092227
0.000259844052828
0.000258784338995
0.000257734828657
0.00025669167961
0.000255651233621
0.000254609941573
0.000253564307493
0.000252510839616
0.000251446008301
0.000250366208987
0.000249267731207
0.000248146726188
0.000246999173504
0.000245820845514
0.000244607268359
0.000243353678222
0.000242054971436
0.00024070564674
0.000239299737704
0.000237830732893
0.000236291480871
0.000234674076768
0.000232969726862
0.000231168588093
0.000229259580957
0.000227230178107
0.000225066178507
0.00022275149004
0.000220267963592
0.000217595348296
0.000214711466013
0.000211592719997
0.000208215036233
0.000204555262405
0.000200592914518
0.000196312007079
0.000191702624322
0.000186761981272
0.000181494977623
0.000175914508659
0.000170041869356
0.00016390742556
0.000157551437771
0.00015102445055
0.000144385841422
0.000137699002655
0.000131024442266
0.000124415485473
0.000117917697762
0.000111569129283
0.000105400294897
9.94356518694e-05
9.36959538087e-05
8.81995539218e-05
8.29627495878e-05
7.79997357412e-05
7.33219823187e-05
6.89370179049e-05
6.48471211251e-05
6.10485026225e-05
5.75313163885e-05
5.42805232119e-05
5.12773596147e-05
4.85010269836e-05
4.59302411024e-05
4.35444192205e-05
4.13244391441e-05
3.92530180107e-05
3.73148101802e-05
3.5496328247e-05
3.37857713564e-05
3.21728186689e-05
3.06484225848e-05
2.92046194694e-05
2.78343648869e-05
2.65313942836e-05
2.52901070792e-05
2.41054709629e-05
2.29729430116e-05
2.18884045277e-05
2.08481069448e-05
1.98486266165e-05
1.88868267355e-05
1.79598249826e-05
1.70649658005e-05
1.61997964124e-05
1.53620458856e-05
1.45496066779e-05
1.37605182082e-05
1.29929520752e-05
1.22451986091e-05
1.15156544814e-05
1.08028111336e-05
1.01052437976e-05
9.4216008833e-06
8.75059348886e-06
8.09098473847e-06
7.44157854895e-06
6.80120723587e-06
6.16871702071e-06
5.54294987375e-06
4.92271901098e-06
4.30677341267e-06
3.6937434399e-06
3.08205446893e-06
2.46978857435e-06
1.85446839299e-06
1.23274091163e-06
5.99965940748e-07
6.31610024057e-08
0.000272425434393
0.000274864551821
0.000276182338145
0.000276330239384
0.000275693702069
0.000274611934612
0.000273321990157
0.000271965669049
0.000270617382767
0.000269310532607
0.000268056050172
0.000266853687694
0.000265698299822
0.000264583090568
0.00026350115754
0.000262446133881
0.000261412378391
0.000260394956129
0.000259389534567
0.000258392256701
0.000257399618971
0.000256408364692
0.000255415395437
0.000254417698794
0.000253412293387
0.000252396180483
0.000251366299383
0.000250319493512
0.000249252479327
0.000248161815604
0.000247043872165
0.000245894796663
0.000244710478068
0.000243486505394
0.000242218120037
0.000240900159786
0.000239526992141
0.000238092433974
0.000236589653865
0.000235011052627
0.00023334811685
0.000231591239966
0.000229729506217
0.000227750435989
0.000225639698376
0.000223380811014
0.000220954871169
0.000218340396949
0.000215513399277
0.000212447838731
0.000209116616164
0.000205493163016
0.000201553517076
0.000197278540063
0.000192655794557
0.000187680710895
0.000182357053755
0.000176697104878
0.000170722086497
0.000164463103525
0.000157962554501
0.000151275449608
0.000144468589475
0.000137614355601
0.00013078040766
0.000124024292265
0.000117394190247
0.000110929816958
0.000104661685974
9.86131614448e-05
9.28041859721e-05
8.72527661937e-05
8.19751120835e-05
7.69856906343e-05
7.22965230583e-05
6.79155346084e-05
6.38447548969e-05
6.00792067236e-05
5.66069124807e-05
5.34100161686e-05
5.04666613151e-05
4.7753089928e-05
4.52454892143e-05
4.29213230289e-05
4.07601035674e-05
3.87436992494e-05
3.68563254615e-05
3.50843552217e-05
3.34160515341e-05
3.18412854721e-05
3.03512742527e-05
2.89383538066e-05
2.75957889013e-05
2.6317618148e-05
2.50985289389e-05
2.39337569385e-05
2.28190051972e-05
2.17503787213e-05
2.07243311356e-05
1.97376207946e-05
1.87872742924e-05
1.78705557963e-05
1.69849409894e-05
1.61280946873e-05
1.52978513998e-05
1.44921982667e-05
1.37092599101e-05
1.29472848357e-05
1.22046330758e-05
1.14797648114e-05
1.077122974e-05
1.00776569661e-05
9.3977451822e-06
8.73025287808e-06
8.07398824063e-06
7.4277982757e-06
6.79055644772e-06
6.16114773033e-06
5.53844927717e-06
4.9213037798e-06
4.30848072007e-06
3.69861784129e-06
3.09013110079e-06
2.48107672775e-06
1.86894638903e-06
1.25038161327e-06
6.20812756761e-07
7.9624286346e-08
0.000269445693817
0.000271735956549
0.000273129823892
0.000273529308902
0.000273213300649
0.000272449816274
0.000271443034103
0.000270326751954
0.000269179082256
0.00026804078104
0.000266930050049
0.00026585255108
0.000264807532922
0.000263791325354
0.000262799210917
0.000261826355813
0.000260868220391
0.000259920695361
0.000258980102394
0.000258043134609
0.000257106776336
0.000256168221547
0.000255224799472
0.000254273910427
0.000253312974373
0.000252339384975
0.000251350464034
0.000250343429618
0.000249315364667
0.000248263186884
0.000247183618273
0.000246073152941
0.000244928021705
0.000243744151939
0.000242517120853
0.000241242100006
0.000239913788329
0.000238526330116
0.000237073213484
0.000235547143553
0.000233939883292
0.000232242053831
0.000230442885838
0.00022852991553
0.000226488625445
0.000224302044786
0.00022195035169
0.000219410563868
0.00021665646325
0.000213658958239
0.000210387104007
0.000206809914973
0.0002028988669
0.000198630644707
0.000193989448268
0.000188968297138
0.000183569342792
0.000177803838142
0.000171692570362
0.00016526713992
0.000158572112043
0.000151667788946
0.000144630965888
0.000137547025449
0.000130493426779
0.000123532939459
0.000116717375077
0.000110089538945
0.00010368029525
9.75115097906e-05
9.16023545719e-05
8.5970609492e-05
8.06322532272e-05
7.56019111676e-05
7.08921796651e-05
6.65113592122e-05
6.24609852617e-05
5.87343532158e-05
5.53165506691e-05
5.21859524413e-05
4.93166587186e-05
4.66811297548e-05
4.42523938362e-05
4.20055269773e-05
3.99184042717e-05
3.79718918319e-05
3.61496890829e-05
3.44379979253e-05
3.28251384776e-05
3.13011793964e-05
2.98576140171e-05
2.84870913861e-05
2.7183199786e-05
2.59402955353e-05
2.4753368675e-05
2.36179377164e-05
2.2529966841e-05
2.14858002692e-05
2.04821097095e-05
1.95158517841e-05
1.85842330961e-05
1.76846811927e-05