/*--------------------------------*- C++ -*----------------------------------*\
  =========                 |
  \\      /  F ield         | OpenFOAM: The Open Source CFD Toolbox
   \\    /   O peration     | Website:  https://openfoam.org
    \\  /    A nd           | Version:  7
     \\/     M anipulation  |
\*---------------------------------------------------------------------------*/
FoamFile
{
    version     2.0;
    format      ascii;
    class       surfaceScalarField;
    location    "1320";
    object      phi;
}
// * * * * * * * * * * * * * * * * * * * * * * * * * * * * * * * * * * * * * //

dimensions      [0 3 -1 0 0 0 0];

internalField   nonuniform List<scalar> 
16192
(
6.92904716878e-10
2.44595283122e-10
4.93526397255e-10
1.99378319444e-10
3.6478280274e-10
1.28743594338e-10
2.82207254786e-10
8.25755477903e-11
2.27601787608e-10
5.46054670161e-11
1.90020140572e-10
3.75816468753e-11
1.63117042436e-10
2.69030979761e-11
1.43177608026e-10
1.99394342509e-11
1.27965854864e-10
1.52117530034e-11
1.16088151811e-10
1.18777028948e-11
1.06643313262e-10
9.44483839474e-12
9.90274163742e-11
7.61589673753e-12
9.28222217772e-11
6.20519445398e-12
8.77294891909e-11
5.0927324523e-12
8.35310853616e-11
4.19840370577e-12
8.00639892531e-11
3.46709599706e-12
7.72041550781e-11
2.8598340768e-12
7.48557980535e-11
2.34835694105e-12
7.29440953005e-11
1.91170268498e-12
7.14100961785e-11
1.53399907104e-12
7.02070984346e-11
1.20299771075e-12
6.9298019803e-11
9.09078618128e-13
6.86534603489e-11
6.44559460918e-13
6.82502537414e-11
4.03206636582e-13
6.8070370927e-11
1.79882866544e-13
6.81000819615e-11
-2.97109573877e-14
6.83293094092e-11
-2.29227344813e-13
6.87511246205e-11
-4.21815080421e-13
6.93613529792e-11
-6.10228199381e-13
7.01582620442e-11
-7.96908875014e-13
7.11423109998e-11
-9.8404873454e-13
7.23159439772e-11
-1.17363272309e-12
7.36834120891e-11
-1.36746782456e-12
7.52506100537e-11
-1.56719764176e-12
7.70249132601e-11
-1.77430284894e-12
7.90150003695e-11
-1.9900867152e-12
8.12306450548e-11
-2.21564425552e-12
8.36824586225e-11
-2.45181310066e-12
8.63815631388e-11
-2.69910401377e-12
8.93391729202e-11
-2.9576092418e-12
9.25660613261e-11
-3.22688783196e-12
9.6071890835e-11
-3.50582889919e-12
9.9864388394e-11
-3.79249691719e-12
1.03948356633e-10
-4.08396756384e-12
1.08324525803e-10
-4.3761684666e-12
1.1298827233e-10
-4.66374579621e-12
1.17928256996e-10
-4.93998391336e-12
1.23125066957e-10
-5.19680918887e-12
1.28549976034e-10
-5.42490829441e-12
1.34163960207e-10
-5.61398338414e-12
1.39917111907e-10
-5.75315091534e-12
1.45748581961e-10
-5.83146928104e-12
1.51587141032e-10
-5.83855832129e-12
1.57352400174e-10
-5.76525842275e-12
1.62956675264e-10
-5.60427441416e-12
1.68307436049e-10
-5.35076015567e-12
1.73310252944e-10
-5.0028163258e-12
1.77872137114e-10
-4.56188366266e-12
1.81905143758e-10
-4.03300620829e-12
1.85330057794e-10
-3.42491367144e-12
1.88079902567e-10
-2.74984448957e-12
1.90102932663e-10
-2.02302989305e-12
1.91364744216e-10
-1.26181144139e-12
1.91849214291e-10
-4.84470054817e-13
1.91558171572e-10
2.91042640511e-13
1.90509945176e-10
1.04822621854e-12
1.88737144024e-10
1.77280087042e-12
1.86284070104e-10
2.45307353893e-12
1.83204142651e-10
3.07992697052e-12
1.79557618105e-10
3.64652397199e-12
1.75409745276e-10
4.14787216699e-12
1.70829345904e-10
4.58039863482e-12
1.65887695498e-10
4.94164959702e-12
1.60657522239e-10
5.23017239157e-12
1.55211946434e-10
5.44557488586e-12
1.4962324083e-10
5.58870464476e-12
1.43961383713e-10
5.66185612478e-12
1.38292475191e-10
5.6689075078e-12
1.32677162652e-10
5.61531151073e-12
1.27169253211e-10
5.50790840945e-12
1.21814673514e-10
5.35457866847e-12
1.16650881473e-10
5.1637910262e-12
1.11706760767e-10
4.94411971016e-12
1.07002959094e-10
4.70380070269e-12
1.0255258049e-10
4.4503776631e-12
9.83621170683e-11
4.19046251691e-12
9.44325042245e-11
3.92961197436e-12
9.07601990592e-11
3.67230433611e-12
8.73382061152e-11
3.42199215382e-12
8.41570008496e-11
3.18120451758e-12
8.12053245887e-11
2.95167555304e-12
7.84708430864e-11
2.73448083632e-12
7.59406734383e-11
2.53016902157e-12
7.36017918612e-11
2.33888099098e-12
7.14413385661e-11
2.16045274654e-12
6.9446837018e-11
1.99450103739e-12
6.76063440842e-11
1.84049245807e-12
6.59085459122e-11
1.69779773108e-12
6.43428122056e-11
1.56573329744e-12
6.28992194143e-11
1.44359241342e-12
6.15685512589e-11
1.33066780617e-12
6.03422832273e-11
1.22626771029e-12
5.92125561016e-11
1.12972682958e-12
5.81721423199e-11
1.04041351021e-12
5.72144079012e-11
9.57734169411e-13
5.63332718419e-11
8.81135831483e-13
5.55231641716e-11
8.10107461868e-13
5.47789833015e-11
7.44180680223e-13
5.40960527717e-11
6.82930356697e-13
5.34700770459e-11
6.25975568667e-13
5.28970954968e-11
5.72981406227e-13
5.23734331821e-11
5.23662185559e-13
5.18956463036e-11
4.77786761694e-13
5.14604593334e-11
4.35186865085e-13
5.10646894839e-11
3.95769755126e-13
5.07051523198e-11
3.59537080098e-13
5.0378539454e-11
3.26612791332e-13
5.00812548425e-11
2.97284546286e-13
4.98091890782e-11
2.72065707728e-13
4.95573993863e-11
2.51789643456e-13
4.93196433768e-11
2.37755967608e-13
4.90876815916e-11
2.3196174859e-13
4.88502104013e-11
2.37471156758e-13
4.85912130988e-11
2.58997270361e-13
4.82874774876e-11
3.03735579563e-13
4.79054391026e-11
3.82038354688e-13
4.74001941913e-11
5.05244885376e-13
6.4827559946e-13
9.53389897704e-10
2.28705385258e-10
8.59609801563e-10
2.93158415245e-10
7.45067174163e-10
2.43286221408e-10
6.41912903197e-10
1.85729818435e-10
5.56774400842e-10
1.39743969053e-10
4.88447096315e-10
1.05908951085e-10
4.33905948954e-10
8.14442450218e-11
3.90195302065e-10
6.36500808255e-11
3.54899138277e-10
5.05079164798e-11
3.26158991314e-10
4.06178495517e-11
3.02574085322e-10
3.30297440904e-11
2.83091513238e-10
2.7098468539e-11
2.66915462567e-10
2.23812448586e-11
2.53438846421e-10
1.85693483535e-11
2.42193630416e-10
1.5443619488e-11
2.32815171269e-10
1.28455549475e-11
2.25016617823e-10
1.06583873551e-11
2.18570424022e-10
8.79455060395e-12
2.13294874344e-10
7.18725225789e-12
2.09044156862e-10
5.78471648387e-12
2.05700967539e-10
4.54618700126e-12
2.03170938986e-10
3.43910717855e-12
2.01378398973e-10
2.43709952539e-12
2.00263109235e-10
1.51849647054e-12
1.99777734958e-10
6.65257287455e-13
1.99885864264e-10
-1.37840068205e-13
2.0056044453e-10
-9.03807361623e-13
2.01782535498e-10
-1.64390574366e-12
2.0354030565e-10
-2.36799798791e-12
2.05828212417e-10
-3.08481521706e-12
2.08646317273e-10
-3.80215310198e-12
2.11999694389e-10
-4.52700928382e-12
2.15897895895e-10
-5.26566870938e-12
2.20354438793e-10
-6.02373984966e-12
2.25386278585e-10
-6.80614188068e-12
2.31013233344e-10
-7.61704064263e-12
2.37257319502e-10
-8.45972951253e-12
2.44141957765e-10
-9.33645039138e-12
2.51691004889e-10
-1.02481500964e-11
2.59927565815e-10
-1.11941690573e-11
2.68872542092e-10
-1.21718629329e-11
2.78542878764e-10
-1.31761643311e-11
2.88949484991e-10
-1.41991018436e-11
3.00094826219e-10
-1.52293074339e-11
3.11970219492e-10
-1.62515603328e-11
3.24552909389e-10
-1.72464342428e-11
3.37803058137e-10
-1.81901311773e-11
3.51660844619e-10
-1.90545941637e-11
3.66043923391e-10
-1.9807985552e-11
3.80845533527e-10
-2.04155920116e-11
3.95933553836e-10
-2.08411697408e-11
4.11150765985e-10
-2.10486799872e-11
4.2631650952e-10
-2.10043004749e-11
4.41229805373e-10
-2.06785529721e-11
4.55673909394e-10
-2.00483772277e-11
4.69422158385e-10
-1.90990080485e-11
4.82244898707e-10
-1.7825555674e-11
4.9391723238e-10
-1.62342164953e-11
5.04227250735e-10
-1.43430238679e-11
5.12984325723e-10
-1.21819881184e-11
5.20026894071e-10
-9.79241246136e-12
5.25229046446e-10
-7.2251820625e-12
5.28505211622e-10
-4.53797659482e-12
5.29812392349e-10
-1.79165094778e-12
5.29149774228e-10
9.53660398794e-13
5.26555982205e-10
3.64201768152e-12
5.22104633695e-10
6.22414862246e-12
5.15898963028e-10
8.65874325835e-12
5.08066254453e-10
1.09126344152e-11
4.98752656014e-10
1.29601211143e-11
4.88118685146e-10
1.47818415863e-11
4.76335460434e-10
1.63636217652e-11
4.63581475427e-10
1.76956329062e-11
4.50039616147e-10
1.87720298774e-11
4.35894123207e-10
1.95910659522e-11
4.21327297489e-10
2.01555284313e-11
4.06515911011e-10
2.04732406285e-11
3.91627462118e-10
2.05573544033e-11
3.76816551897e-10
2.04262197272e-11
3.6222171797e-10
2.01027403445e-11
3.47963031277e-10
1.96132633939e-11
3.34140659427e-10
1.89861609495e-11
3.20834462442e-10
1.82503148183e-11
3.08104552737e-10
1.74337085925e-11
2.9599264971e-10
1.65622789426e-11
2.84524004125e-10
1.56591064281e-11
2.73709656798e-10
1.47439577045e-11
2.63548819356e-10
1.38331402611e-11
2.54031207629e-10
1.29396024441e-11
2.45139207778e-10
1.20732030123e-11
2.36849802127e-10
1.12410799274e-11
2.29136220678e-10
1.0448061088e-11
2.21969313423e-10
9.69707515585e-12
2.15318658213e-10
8.989535155e-12
2.09153430484e-10
8.32567950031e-12
2.03443066614e-10
7.70486400187e-12
1.98157753801e-10
7.12580443082e-12
1.93268777836e-10
6.58677291885e-12
1.88748756999e-10
6.08575341506e-12
1.84571786574e-10
5.6205621759e-12
1.80713514503e-10
5.18893926631e-12
1.77151165033e-10
4.7886166196e-12
1.73863523776e-10
4.41736757192e-12
1.70830894721e-10
4.07304209337e-12
1.68035037185e-10
3.75359127396e-12
1.65459088588e-10
3.4570840345e-12
1.63087477145e-10
3.1817185462e-12
1.60905827032e-10
2.92583046666e-12
1.58900857252e-10
2.68789983969e-12
1.5706027419e-10
2.46655836173e-12
1.55372656656e-10
2.26059869607e-12
1.53827330997e-10
2.06898762552e-12
1.52414232464e-10
1.89088509693e-12
1.51123747496e-10
1.72567165606e-12
1.49946529645e-10
1.57298744892e-12
1.48873279647e-10
1.43278693872e-12
1.47894477478e-10
1.30541483775e-12
1.47000051375e-10
1.19171054319e-12
1.46178966446e-10
1.09315054506e-12
1.45418715666e-10
1.01204034531e-12
1.447047041e-10
9.51767465296e-13
1.44019546974e-10
9.17118813235e-13
1.43342388738e-10
9.14629335825e-13
1.42648582218e-10
9.52803735937e-13
1.41910680149e-10
1.04163759792e-12
1.41103199001e-10
1.18951946036e-12
1.40218460816e-10
1.38998304128e-12
1.57362909021e-12
9.76218455285e-10
1.89986929797e-10
9.62975553398e-10
3.06401316753e-10
9.06087456485e-10
3.00174317956e-10
8.33719867057e-10
2.58097407517e-10
7.6086794218e-10
2.12595893588e-10
6.93942793685e-10
1.72834099241e-10
6.35014750138e-10
1.40372288229e-10
5.84187818673e-10
1.14477011951e-10
5.40778580191e-10
9.39171546229e-11
5.03865388392e-10
7.7531041017e-11
4.7252689827e-10
6.43682338856e-11
4.45933781441e-10
5.3691585053e-11
4.23374091881e-10
4.4940934117e-11
4.04250636157e-10
3.76928037939e-11
3.88068080577e-10
3.16261748038e-11
3.74417647421e-10
2.64959878613e-11
3.62962618922e-10
2.21134156355e-11
3.53425756481e-10
1.8331412853e-11
3.45578825379e-10
1.50341831943e-11
3.3923405222e-10
1.2129489509e-11
3.34237228483e-10
9.54301063497e-12
3.30462165752e-10
7.2141698413e-12
3.2780624016e-10
5.09302508543e-12
3.26186806342e-10
3.13793029555e-12
3.25538302309e-10
1.31376136752e-12
3.25809901983e-10
-4.0943965033e-13
3.2696359944e-10
-2.05750468151e-12
3.28972632246e-10
-3.65293836444e-12
3.31820171301e-10
-5.2155368071e-12
3.35498212426e-10
-6.7628560542e-12
3.40006614756e-10
-8.310555089e-12
3.45352236787e-10
-9.8726309156e-12
3.51548124024e-10
-1.14615554898e-11
3.5861270309e-10
-1.30883183974e-11
3.66568936374e-10
-1.47623745882e-11
3.75443389269e-10
-1.64914928977e-11
3.85265159112e-10
-1.82814986551e-11
3.96064612137e-10
-2.01359026525e-11
4.07871872636e-10
-2.2055409771e-11
4.20715008893e-10
-2.40373044266e-11
4.34617864735e-10
-2.60747178292e-11
4.49597496389e-10
-2.81557949784e-11
4.65661194023e-10
-3.02627984151e-11
4.82803098991e-10
-3.2371211285e-11
5.01000473093e-10
-3.44489332692e-11
5.20209735967e-10
-3.64556959069e-11
5.40362458358e-10
-3.83428523237e-11
5.61361575864e-10
-4.00537103965e-11
5.83078157726e-10
-4.15245661298e-11
6.05349112056e-10
-4.26865450533e-11
6.27976214482e-10
-4.34682708961e-11
6.50726798853e-10
-4.37992631159e-11
6.73336344396e-10
-4.36138448259e-11
6.95513049366e-10
-4.28552568119e-11
7.1694432532e-10
-4.14796521337e-11
7.3730501072e-10
-3.94596924908e-11
7.56267003672e-10
-3.67875477766e-11
7.73509941613e-10
-3.34771536995e-11
7.88732476874e-10
-2.95655585206e-11
8.01663577374e-10
-2.51130881419e-11
8.1207311643e-10
-2.02019511862e-11
8.19780858658e-10
-1.49329241095e-11
8.24662912906e-10
-9.42003082535e-12
8.26654931714e-10
-3.78366990331e-12
8.25751813932e-10
1.85677785707e-12
8.22004264291e-10
7.38956682597e-12
8.15513040998e-10
1.27153712409e-11
8.06421885283e-10
1.7749898132e-11
7.94910072426e-10
2.24244462665e-11
7.81185321343e-10
2.6684871047e-11
7.65477477489e-10
3.04896841535e-11
7.4803303766e-10
3.38080601931e-11
7.2911031194e-10
3.66183571221e-11
7.0897487634e-10
3.8907463893e-11
6.87894966733e-10
4.06709739045e-11
6.66136583105e-10
4.19139103576e-11
6.43958273439e-10
4.26515485563e-11
6.21605787257e-10
4.29098388316e-11
5.99306959731e-10
4.27250454952e-11
5.77267258595e-10
4.21424397368e-11
5.55666383684e-10
4.12141365866e-11
5.34656176697e-10
3.99963662576e-11
5.14359922514e-10
3.85465673703e-11
4.94872952714e-10
3.69206768197e-11
4.76264332871e-10
3.51708972744e-11
4.58579344153e-10
3.33440937042e-11
4.41842454403e-10
3.14808460814e-11
4.26060500978e-10
2.96150923856e-11
4.11225859482e-10
2.77742427126e-11
3.97319433698e-10
2.59796276409e-11
3.84313360863e-10
2.4247151677e-11
3.72173376462e-10
2.25880444755e-11
3.60860821215e-10
2.10096294548e-11
3.50334300034e-10
1.95160554548e-11
3.40551019718e-10
1.81089589963e-11
3.31467841506e-10
1.67880414552e-11
3.23042088037e-10
1.5551557196e-11
3.15232144052e-10
1.43967162555e-11
3.07997887404e-10
1.33200094643e-11
3.01300983097e-10
1.23174659328e-11
2.95105068529e-10
1.13848533286e-11
2.89375853702e-10
1.05178309825e-11
2.84081155889e-10
9.71206496069e-12
2.79190884445e-10
8.96331314896e-12
2.74676988098e-10
8.26748726629e-12
2.70513374115e-10
7.6206976949e-12
2.66675806255e-10
7.01928611282e-12
2.63141786257e-10
6.45985019865e-12
2.59890421722e-10
5.93926413372e-12
2.56902281588e-10
5.4546982777e-12
2.54159238868e-10
5.00364121951e-12
2.51644298895e-10
4.58392742184e-12
2.4934140997e-10
4.19377386366e-12
2.47235252038e-10
3.8318294461e-12
2.45310997948e-10
3.49724141393e-12
2.43554041191e-10
3.18974358535e-12
2.41949684381e-10
2.90977155185e-12
2.40482785115e-10
2.65860972664e-12
2.39137362538e-10
2.43857305153e-12
2.37896183042e-10
2.25321978186e-12
2.36740375238e-10
2.10757521644e-12
2.35649188087e-10
2.00830591641e-12
2.34600130183e-10
1.96368719314e-12
2.33569962472e-10
1.98297140163e-12
2.32537419897e-10
2.07418013072e-12
2.31489157264e-10
2.23778205677e-12
2.3042935192e-10
2.44978836097e-12
2.62119768153e-12
9.71762478069e-10
1.55724451547e-10
9.86669138051e-10
2.9149465636e-10
9.68159596844e-10
3.18683858773e-10
9.27853259015e-10
2.98403744969e-10
8.77606190478e-10
2.6284296175e-10
8.24942013791e-10
2.25498275551e-10
7.74012040439e-10
1.91302261203e-10
7.26850674441e-10
1.61638377568e-10
6.84272782554e-10
1.36495046128e-10
6.46430443916e-10
1.15373379276e-10
6.13138736039e-10
9.76599413882e-11
5.84059480575e-10
8.27708401505e-11
5.58801480622e-10
7.01989337159e-11
5.36972958309e-10
5.95213257659e-11
5.18207202822e-10
5.03919299648e-11
5.02173532086e-10
4.25296582898e-11
4.88580437097e-10
3.57065103356e-11
4.77174755549e-10
2.97370941341e-11
4.67738995998e-10
2.44699425006e-11
4.60087957575e-10
1.97805277115e-11
4.54065242536e-10
1.556572548e-11
4.49539954946e-10
1.17394572657e-11
4.46403712511e-10
8.22926738336e-12
4.44568009676e-10
4.97363302605e-12
4.43961924243e-10
1.91984672999e-12
4.44530137626e-10
-9.7765306888e-13
4.46231226315e-10
-3.75859336708e-12
4.49036183896e-10
-6.45789590311e-12
4.52927133019e-10
-9.10648584638e-12
4.57896181406e-10
-1.17319043138e-11
4.63944380032e-10
-1.4358753542e-11
4.71080741405e-10
-1.70089920686e-11
4.79321274879e-10
-1.97020886939e-11
4.88687994032e-10
-2.24550372314e-11
4.99207848414e-10
-2.52822285986e-11
5.10911528546e-10
-2.81951726059e-11
5.23832089519e-10
-3.12020591501e-11
5.38003335366e-10
-3.43071479665e-11
5.53457904762e-10
-3.750997858e-11
5.70224999827e-10
-4.08043988486e-11
5.88327705801e-10
-4.41774231044e-11
6.07779862613e-10
-4.76079510357e-11
6.28582472553e-10
-5.10654075458e-11
6.50719664451e-10
-5.45084023198e-11
6.74154286227e-10
-5.78835541311e-11
6.98823265331e-10
-6.1124674049e-11
7.24632958019e-10
-6.41525440086e-11
7.51454796618e-10
-6.6875547957e-11
7.79121625507e-10
-6.91913939569e-11
8.07425172465e-10
-7.09900909365e-11
8.36115110206e-10
-7.21582075637e-11
8.64900105991e-10
-7.25842578438e-11
8.93451131155e-10
-7.21648689651e-11
9.21407124872e-10
-7.08112495511e-11
9.48382914756e-10
-6.8455441103e-11
9.73979133896e-10
-6.50559107926e-11
9.97793764325e-10
-6.06021774547e-11
1.01943486951e-09
-5.5118258229e-11
1.03853400797e-09
-4.86646964428e-11
1.0547596948e-09
-4.13387745429e-11
1.06783007869e-09
-3.32723347737e-11
1.0775237843e-09
-2.46266295597e-11
1.08368777737e-09
-1.55840238686e-11
1.08624132928e-09
-6.33722194009e-12
1.08517575458e-09
2.92235227828e-12
1.08055036372e-09
1.20149572413e-11
1.0724856564e-09
2.07800779616e-11
1.06115495112e-09
2.9080602672e-11
1.04677555407e-09
3.68038424182e-11
1.0296003284e-09
4.38600956954e-11
1.00991014613e-09
5.01798652767e-11
9.88007290875e-10
5.57109142094e-11
9.64209560169e-10
6.04160864987e-11
9.38844661111e-10
6.42723615528e-11
9.12244495935e-10
6.72711376265e-11
8.84739075768e-10
6.94193290326e-11
8.56650040788e-10
7.07405820192e-11
8.28284030619e-10
7.12758474735e-11
7.99926352366e-10
7.1082722225e-11
7.71835473087e-10
7.02333175104e-11
7.44238803862e-10
6.88108043345e-11
7.17330075963e-10
6.69050927206e-11
6.91268394644e-10
6.46082473015e-11
6.66178853233e-10
6.20102169e-11
6.42154441359e-10
5.91953078778e-11
6.19258903006e-10
5.62396308512e-11
5.97530187062e-10
5.32095608857e-11
5.7698416766e-10
5.01611107137e-11
5.57618372852e-10
4.71400365134e-11
5.39415530247e-10
4.41824693039e-11
5.22346804824e-10
4.1315876221e-11
5.06374660337e-10
3.85601881463e-11
4.91455319091e-10
3.5928969942e-11
4.77540825687e-10
3.34305481564e-11
4.64580740208e-10
3.10690438264e-11
4.52523497734e-10
2.88452833319e-11
4.41317476082e-10
2.67575782972e-11
4.30911814416e-10
2.48023774167e-11
4.21257023257e-10
2.29748001592e-11
4.1230542284e-10
2.12690659262e-11
4.04011442259e-10
1.9678833521e-11
3.96331807297e-10
1.81974655912e-11
3.89225640251e-10
1.68182316845e-11
3.82654490979e-10
1.55344621278e-11
3.76582314585e-10
1.43396633943e-11
3.70975407896e-10
1.32276041429e-11
3.65802314004e-10
1.2192379787e-11
3.61033701664e-10
1.12284623423e-11
3.56642224202e-10
1.03307414189e-11
3.52602360742e-10
9.49456157876e-12
3.48890240972e-10
8.71576084767e-12
3.45483453332e-10
7.99071493455e-12
3.42360835461e-10
7.31639162185e-12
3.39502245034e-10
6.69041977355e-12
3.36888309044e-10
6.11117731555e-12
3.34500150438e-10
5.5779021159e-12
3.32319093512e-10
5.0908284132e-12
3.30326354844e-10
4.6513483404e-12
3.28502736593e-10
4.26219125801e-12
3.26828357044e-10
3.92759929343e-12
3.25282484137e-10
3.65344809213e-12
3.23843588386e-10
3.44720163803e-12
3.22489809921e-10
3.31746562779e-12
3.21200138948e-10
3.27264234235e-12
3.1995669138e-10
3.31762766585e-12
3.18748161918e-10
3.44631149034e-12
3.17572319026e-10
3.62563123263e-12
3.76765311632e-12
9.6396079691e-10
1.29263654417e-10
9.87757258029e-10
2.67698194779e-10
9.89912183053e-10
3.16528933307e-10
9.72508931956e-10
3.15806995647e-10
9.42489651768e-10
2.92862241524e-10
9.05896110777e-10
2.62091816127e-10
8.66918755286e-10
2.30279616277e-10
8.28201116637e-10
2.00356015797e-10
7.91296616846e-10
1.73399545496e-10
7.57042303647e-10
1.49627692053e-10
7.2582350698e-10
1.28878737635e-10
6.97750649559e-10
1.10843697159e-10
6.7277375459e-10
9.5175828281e-11
6.50755052529e-10
8.15400274338e-11
6.31514172562e-10
6.96328095514e-11
6.14855697452e-10
5.91881330346e-11
6.00585512032e-10
4.99766954067e-11
5.88520109181e-10
4.18024966542e-11
5.78491522473e-10
3.44985288953e-11
5.70349583832e-10
2.79224660611e-11
5.63962579605e-10
2.19527294369e-11
5.5921697865e-10
1.64850579741e-11
5.56016651003e-10
1.14295948094e-11
5.54281833491e-10
6.70845034391e-12
5.53947995502e-10
2.25368455263e-12
5.54964692782e-10
-1.99435048431e-12
5.57294449856e-10
-6.08835054353e-12
5.60911697417e-10
-1.00751435332e-11
5.65801764917e-10
-1.39965533795e-11
5.71959913725e-10
-1.78900531168e-11
5.79390391985e-10
-2.17892317576e-11
5.88105484939e-10
-2.57240849362e-11
5.9812452847e-10
-2.97211320954e-11
6.09472848147e-10
-3.38033567339e-11
6.22180580715e-10
-3.79899609458e-11
6.36281329805e-10
-4.2295921427e-11
6.51810602819e-10
-4.67313318463e-11
6.68803972062e-10
-5.13005168411e-11
6.87294901085e-10
-5.60009071813e-11
7.07312178246e-10
-6.08216755358e-11
7.28876905548e-10
-6.57421498776e-11
7.51999004211e-10
-7.07300491153e-11
7.76673222326e-10
-7.57396250224e-11
8.02874667378e-10
-8.07098466765e-11
8.30553940576e-10
-8.55628265808e-11
8.59632022417e-10
-9.02027550884e-11
8.89995148237e-10
-9.45156689818e-11
9.21490012257e-10
-9.83704110878e-11
9.53919734372e-10
-1.01621115151e-10
9.87041093864e-10
-1.04111449487e-10
1.02056355055e-09
-1.05680663298e-10
1.05415051257e-09
-1.06171218928e-10
1.08742316265e-09
-1.0543751812e-10
1.11996694062e-09
-1.03355026646e-10
1.15134054907e-09
-9.98290487197e-11
1.18108715944e-09
-9.48025203954e-11
1.20874738725e-09
-8.82624045888e-11
1.2338735618e-09
-8.02444321818e-11
1.25604477418e-09
-7.083590832e-11
1.27488206695e-09
-6.01760669211e-11
1.29006288448e-09
-4.84531520266e-11
1.30133358433e-09
-3.58973292531e-11
1.30851860453e-09
-2.27690440439e-11
1.31152508046e-09
-9.34369798517e-12
1.31034246267e-09
4.10496981288e-12
1.30503771391e-09
1.73197056115e-11
1.29574738155e-09
3.00704097743e-11
1.28266798247e-09
4.21600010765e-11
1.26604597104e-09
5.34258530294e-11
1.24616827327e-09
6.37377925293e-11
1.22335392157e-09
7.29942159393e-11
1.19794681523e-09
8.11180194155e-11
1.17030925998e-09
8.80536405342e-11
1.14081578026e-09
9.3765840005e-11
1.10984671576e-09
9.82402008003e-11
1.07778128704e-09
1.01484756405e-10
1.04499010997e-09
1.03531757721e-10
1.01182746776e-09
1.04438488305e-10
9.78623896947e-10
1.04286291663e-10
9.45679732447e-10
1.03177480658e-10
9.13260171455e-10
1.01230364004e-10
8.81592202508e-10
9.85730603862e-11
8.5086348154e-10
9.53369670372e-11
8.21222996915e-10
9.1650700348e-11
7.92783198325e-10
8.76351053503e-11
7.65623184971e-10
8.33996431504e-11
7.39792544945e-10
7.90401999207e-11
7.15315485876e-10
7.46381688539e-11
6.92194971095e-10
7.02605504294e-11
6.70416655664e-10
6.59607839308e-11
6.49952489943e-10
6.17800411964e-11
6.30763918566e-10
5.77487588335e-11
6.1280464827e-10
5.3888239603e-11
5.9602298992e-10
5.02122059215e-11
5.8036380064e-10
4.67282325701e-11
5.65770063677e-10
4.34390198037e-11
5.52184149042e-10
4.03434924828e-11
5.39548798949e-10
3.74377270998e-11
5.27807880277e-10
3.47157184581e-11
5.16906942836e-10
3.21700030276e-11
5.06793617935e-10
2.97921581131e-11
4.97417887186e-10
2.75731960604e-11
4.88732246991e-10
2.55038716266e-11
4.80691789949e-10
2.35749189409e-11
4.73254220587e-10
2.17772325502e-11
4.66379819405e-10
2.01020051395e-11
4.6003136626e-10
1.85408327658e-11
4.54174031522e-10
1.70857969316e-11
4.48775241236e-10
1.57295315724e-11
4.43804520658e-10
1.4465282038e-11
4.39233319009e-10
1.32869623916e-11
4.35034817077e-10
1.21892167743e-11
4.31183718509e-10
1.11674901079e-11
4.27656025312e-10
1.02181128995e-11
4.2442879843e-10
9.33840413557e-12
4.21479905677e-10
8.52679481646e-12
4.18787762156e-10
7.78297189131e-12
4.16331073484e-10
7.10803697746e-12
4.14088600659e-10
6.50466405472e-12
4.1203897871e-10
5.97722122103e-12
4.10160640885e-10
5.53178589872e-12
4.08431926582e-10
5.17591592342e-12
4.06831479749e-10
4.9179124411e-12
4.05339051427e-10
4.76507063971e-12
4.03936708597e-10
4.71997046938e-12
4.0260988277e-10
4.77313729253e-12
4.01345630444e-10
4.88988354107e-12
4.99171001728e-12
9.57582529744e-10
1.09181124437e-10
9.82665823615e-10
2.42614900413e-10
9.95283868688e-10
3.03910887763e-10
9.92689865968e-10
3.18400997912e-10
9.78028555953e-10
3.07523551085e-10
9.55400558899e-10
2.84719812724e-10
9.28256514036e-10
2.57423660678e-10
8.99128725893e-10
2.29483803472e-10
8.69754466491e-10
2.02773804427e-10
8.41269059047e-10
1.78113099024e-10
8.14377943727e-10
1.55769852485e-10
7.89489691605e-10
1.35731948814e-10
7.66813037862e-10
1.17852481564e-10
7.46425606735e-10
1.01927458109e-10
7.28321715769e-10
8.77367000753e-11
7.12445187727e-10
7.50646606461e-11
6.98711605606e-10
6.37102771093e-11
6.87023218132e-10
5.34908837225e-11
6.77278771404e-10
4.42429752325e-11
6.69379862394e-10
3.58213746965e-11
6.63234924315e-10
2.80976671584e-11
6.5876161132e-10
2.09583706294e-11
6.55888110308e-10
1.43030955019e-11
6.54553740602e-10
8.04281975159e-12
6.54709086057e-10
2.09833882154e-12
6.56315823663e-10
-3.60108834169e-12
6.59346348762e-10
-9.11887586838e-12
6.63783279147e-10
-1.45120741173e-11
6.69618869377e-10
-1.98321437791e-11
6.76854352227e-10
-2.51255361048e-11
6.85499211415e-10
-3.04340910507e-11
6.95570376845e-10
-3.57952504368e-11
7.07091323444e-10
-4.12420787286e-11
7.20091046007e-10
-4.68030792912e-11
7.34602874711e-10
-5.25017896037e-11
7.50663088933e-10
-5.83561355593e-11
7.68309280684e-10
-6.43775234636e-11
7.87578413854e-10
-7.05696498291e-11
8.0850452211e-10
-7.69270152063e-11
8.31115988084e-10
-8.34331412264e-11
8.55432350974e-10
-9.00585124296e-11
8.81460601484e-10
-9.67582992313e-11
9.09190945173e-10
-1.0346996826e-10
9.38592051621e-10
-1.10110952612e-10
9.69605861313e-10
-1.16576635701e-10
1.00214209788e-09
-1.22738991022e-10
1.03607273055e-09
-1.28446300971e-10
1.07122674514e-09
-1.33524424934e-10
1.10738569667e-09
-1.3778006591e-10
1.14428060815e-09
-1.41006360156e-10
1.18159081148e-09
-1.42990865792e-10
1.21894526576e-09
-1.43525672377e-10
1.25592671717e-09
-1.42418968714e-10
1.29207880559e-09
-1.3950711427e-10
1.32691594096e-09
-1.34666183348e-10
1.35993555234e-09
-1.27822131073e-10
1.39063221186e-09
-1.18959063482e-10
1.41851313937e-09
-1.08125359147e-10
1.44311460526e-09
-9.54373737512e-11
1.46401864717e-09
-8.10801084762e-11
1.48086921565e-09
-6.53037202478e-11
1.4933863944e-09
-4.84145078632e-11
1.50137693928e-09
-3.07595888961e-11
1.5047395068e-09
-1.27062656056e-11
1.50346393471e-09
5.3805416691e-12
1.49762537905e-09
2.31582609189e-11
1.48737501572e-09
4.03207726069e-11
1.47292904983e-09
5.66059663513e-11
1.45455748226e-09
7.17974198651e-11
1.43257375967e-09
8.57215142828e-11
1.40732589654e-09
9.82420781292e-11
1.37918899919e-09
1.09254915744e-10
1.34855868371e-09
1.18683954928e-10
1.31584473199e-09
1.26479790586e-10
1.28146436949e-09
1.32620562126e-10
1.24583476111e-09
1.3711436359e-10
1.20936469519e-09
1.40001822425e-10
1.1724458462e-09
1.41357336075e-10
1.13544431824e-09
1.41287818419e-10
1.09869327193e-09
1.39928525787e-10
1.06248731437e-09
1.3743632041e-10
1.0270790525e-09
1.33981321149e-10
9.92677879165e-10
1.29738139307e-10
9.59450774948e-10
1.2487780356e-10
9.2752472259e-10
1.19561156761e-10
8.96990255964e-10
1.13934108891e-10
8.67905679265e-10
1.08124775796e-10
8.40301561181e-10
1.02242286175e-10
8.14185200798e-10
9.63769101077e-11
7.89544854571e-10
9.06011295116e-11
7.66353593957e-10
8.49713012175e-11
7.44572726573e-10
7.95296256761e-11
7.24154759685e-10
7.43062059982e-11
7.0504591601e-10
6.93210491497e-11
6.87188231162e-10
6.45859170129e-11
6.7052127275e-10
6.01059778498e-11
6.54983525668e-10
5.58812392344e-11
6.4051348862e-10
5.19077638515e-11
6.27050524821e-10
4.81786819903e-11
6.14535506307e-10
4.46850213024e-11
6.02911286989e-10
4.14163772169e-11
5.9212303513e-10
3.8361447728e-11
5.82118451506e-10
3.55084550813e-11
5.72847895382e-10
3.28454749134e-11
5.64264436698e-10
3.0360691101e-11
5.56323849456e-10
2.80425922627e-11
5.48984558425e-10
2.58801236931e-11
5.42207548672e-10
2.38628065948e-11
5.35956245315e-10
2.198083485e-11
5.30196369064e-10
2.02251582202e-11
5.24895771635e-10
1.85875597618e-11
5.20024254045e-10
1.70607343139e-11
5.15553370057e-10
1.5638374053e-11
5.11456216783e-10
1.43152661372e-11
5.07707214791e-10
1.30874060979e-11
5.04281881154e-10
1.19521284312e-11
5.01156601021e-10
1.0908252007e-11
4.98308406824e-10
9.95623116303e-12
4.95714779454e-10
9.098291418e-12
4.93353492971e-10
8.33850770145e-12
4.91202532949e-10
7.68274591828e-12
4.89240125519e-10
7.13832334939e-12
4.87444908965e-10
6.71312898638e-12
4.85796229822e-10
6.41374976749e-12
4.84274355518e-10
6.24184475374e-12
4.82859815769e-10
6.18767702158e-12
4.81529762237e-10
6.21993705859e-12
6.27355271713e-12
9.52974909725e-10
9.37062144463e-11
9.76639954962e-10
2.18949854644e-10
9.94125699592e-10
2.86425142628e-10
1.00071207296e-09
3.11814624064e-10
9.97023618294e-10
3.1121200527e-10
9.85466452545e-10
2.96276977992e-10
9.6857950018e-10
2.74310612555e-10
9.48492191917e-10
2.49571111244e-10
9.26832769365e-10
2.24433226482e-10
9.04785361005e-10
2.00160506885e-10
8.83180872822e-10
1.77374340169e-10
8.62583092996e-10
1.56329728145e-10
8.43359643604e-10
1.37075930467e-10
8.25737139196e-10
1.19549962034e-10
8.09842820348e-10
1.03631018448e-10
7.95735436727e-10
8.91720438026e-11
7.83427884434e-10
7.60178289475e-11
7.72903642139e-10
6.40151255744e-11
7.64128600139e-10
5.30180168015e-11
7.5705949531e-10
4.28904791085e-11
7.51649861253e-10
3.35073008128e-11
7.47854168515e-10
2.475406298e-11
7.45630651912e-10
1.6526611735e-11
7.44943188537e-10
8.7302827737e-12
7.45762490204e-10
1.27903682224e-12
7.48066799203e-10
-5.90539765149e-12
7.51842216234e-10
-1.28942931889e-11
7.57082772706e-10
-1.97526308535e-11
7.63790293703e-10
-2.65396650148e-11
7.71974092627e-10
-3.33093352382e-11
7.81650518123e-10
-4.01105167272e-11
7.92842358577e-10
-4.69870910397e-11
8.05578096912e-10
-5.39778171772e-11
8.19890997738e-10
-6.11159801952e-11
8.35817999435e-10
-6.842879134e-11
8.53398375144e-10
-7.59365112657e-11
8.72672118929e-10
-8.36512672026e-11
8.93678006687e-10
-9.15755374942e-11
9.16451276291e-10
-9.97002846693e-11
9.41020869045e-10
-1.08002733786e-10
9.674061763e-10
-1.16443819436e-10
9.95613243646e-10
-1.24965366271e-10
1.02563040365e-09
-1.334871279e-10
1.05742334134e-09
-1.41903889873e-10
1.09092964957e-09
-1.50082943435e-10
1.12605300941e-09
-1.57862350304e-10
1.16265723627e-09