/*--------------------------------*- C++ -*----------------------------------*\
  =========                 |
  \\      /  F ield         | OpenFOAM: The Open Source CFD Toolbox
   \\    /   O peration     | Website:  https://openfoam.org
    \\  /    A nd           | Version:  7
     \\/     M anipulation  |
\*---------------------------------------------------------------------------*/
FoamFile
{
    version     2.0;
    format      ascii;
    class       volVectorField;
    location    "1320";
    object      U;
}
// * * * * * * * * * * * * * * * * * * * * * * * * * * * * * * * * * * * * * //

dimensions      [0 1 -1 0 0 0 0];

internalField   nonuniform List<vector> 
8192
(
(0.0010434590188 0.000156540981198 0)
(0.000759315913045 0.000127602124444 0)
(0.000549317887997 8.23959003764e-05 0)
(0.000414073636817 5.28483505858e-05 0)
(0.000326277787132 3.49474988903e-05 0)
(0.000267278034035 2.40522540002e-05 0)
(0.000226007797125 1.72179827047e-05 0)
(0.000196028576296 1.27612379206e-05 0)
(0.00017353181625 9.73552192216e-06 0)
(0.000156194564272 7.6017298527e-06 0)
(0.000142548137647 6.04469657263e-06 0)
(0.000131629266967 4.87417391202e-06 0)
(0.000122783768417 3.97132445055e-06 0)
(0.00011555309502 3.25934876947e-06 0)
(0.000109606767714 2.68697837169e-06 0)
(0.000104700847753 2.21894143812e-06 0)
(0.000100651612372 1.83029380915e-06 0)
(9.73183700042e-05 1.50294844228e-06 0)
(9.45919317465e-05 1.22348971839e-06 0)
(9.23866825465e-05 9.81759405467e-07 0)
(9.06350045524e-05 7.6991853488e-07 0)
(8.92832756721e-05 5.81810315602e-07 0)
(8.82889472972e-05 4.12518054988e-07 0)
(8.76183770178e-05 2.58052247412e-07 0)
(8.72451997878e-05 1.15125034588e-07 0)
(8.71490898486e-05 -1.90150127281e-08 0)
(8.73148104773e-05 -1.46705500681e-07 0)
(8.7731477779e-05 -2.6996165147e-07 0)
(8.83919856638e-05 -3.90546047604e-07 0)
(8.9292553615e-05 -5.10021680009e-07 0)
(9.04323667482e-05 -6.29791190105e-07 0)
(9.18132831852e-05 -7.51124942776e-07 0)
(9.34395878824e-05 -8.75179407717e-07 0)
(9.53177741714e-05 -1.00300649073e-06 0)
(9.74563349208e-05 -1.13555382332e-06 0)
(9.98655447229e-05 -1.27365549773e-06 0)
(0.000102557213072 -1.41801232353e-06 0)
(0.000105544386353 -1.56916038442e-06 0)
(0.000108840973927 -1.72742656881e-06 0)
(0.000112461271078 -1.89286991475e-06 0)
(0.000116419349918 -2.06520821246e-06 0)
(0.000120728289383 -2.24373049548e-06 0)
(0.000125399218707 -2.427198027e-06 0)
(0.000130440156817 -2.61373924086e-06 0)
(0.000135854644759 -2.80074781862e-06 0)
(0.000141640190805 -2.98479730957e-06 0)
(0.000147786578769 -3.16158970455e-06 0)
(0.00015427412733 -3.32595788088e-06 0)
(0.000161072027514 -3.47194130842e-06 0)
(0.000168136919195 -3.59294936585e-06 0)
(0.000175411886153 -3.68201658582e-06 0)
(0.000182826044075 -3.73214033987e-06 0)
(0.000190294862715 -3.73667732563e-06 0)
(0.000197721306372 -3.68976539056e-06 0)
(0.000204997808281 -3.58673562506e-06 0)
(0.00021200903124 -3.42448649963e-06 0)
(0.000218635320955 -3.20180244851e-06 0)
(0.000224756729637 -2.9196055441e-06 0)
(0.000230257459758 -2.58112397331e-06 0)
(0.000235030528994 -2.19194474972e-06 0)
(0.000238982374631 -1.75990047333e-06 0)
(0.000242037014547 -1.29473913155e-06 0)
(0.000244139313202 -8.07559322492e-07 0)
(0.000245256933445 -3.10060835083e-07 0)
(0.000245380726953 1.86267289927e-07 0)
(0.000244523594719 6.70864779867e-07 0)
(0.000242718137088 1.13459255707e-06 0)
(0.000240013577042 1.56996706492e-06 0)
(0.000236472456163 1.97115326113e-06 0)
(0.000232167526884 2.33377534207e-06 0)
(0.000227179112564 2.65463818687e-06 0)
(0.000221593018355 2.93145512628e-06 0)
(0.000215498906497 3.16265574209e-06 0)
(0.000208988939352 3.3473103306e-06 0)
(0.000202156459951 3.48516792695e-06 0)
(0.000195094519849 3.57677097264e-06 0)
(0.000187894159707 3.62358791986e-06 0)
(0.000180642469698 3.62810080499e-06 0)
(0.00017342056822 3.59379936687e-06 0)
(0.000166301706152 3.52506138205e-06 0)
(0.000159349713104 3.42693034782e-06 0)
(0.000152617955192 3.30482625677e-06 0)
(0.000146148891034 3.1642366145e-06 0)
(0.000139974220711 3.01043244972e-06 0)
(0.000134115545334 2.84824170438e-06 0)
(0.000128585406438 2.68189601082e-06 0)
(0.000123388557627 2.51495166359e-06 0)
(0.000118523330102 2.35027477511e-06 0)
(0.000113982979312 2.19007497844e-06 0)
(0.000109756932458 2.03597089125e-06 0)
(0.000105831888281 1.88907235394e-06 0)
(0.000102192747312 1.75006773525e-06 0)
(9.88233705758e-05 1.6193081738e-06 0)
(9.57071777917e-05 1.49688383423e-06 0)
(9.28276034735e-05 1.38268975778e-06 0)
(9.01684323738e-05 1.27648066393e-06 0)
(8.77140359055e-05 1.17791517317e-06 0)
(8.54495295977e-05 1.08659054789e-06 0)
(8.33608691953e-05 1.00206931036e-06 0)
(8.14349002367e-05 9.23899144587e-07 0)
(7.96593732309e-05 8.5162739595e-07 0)
(7.80229340711e-05 7.84811334586e-07 0)
(7.65150971705e-05 7.23025170933e-07 0)
(7.51262069898e-05 6.65864646538e-07 0)
(7.38473921415e-05 6.12949868423e-07 0)
(7.26705150356e-05 5.63926932149e-07 0)
(7.15881190487e-05 5.18468775595e-07 0)
(7.05933743828e-05 4.76275635343e-07 0)
(6.96800230868e-05 4.37075428286e-07 0)
(6.88423230832e-05 4.00624363947e-07 0)
(6.80749904273e-05 3.66708099985e-07 0)
(6.73731383545e-05 3.35143798758e-07 0)
(6.67322108709e-05 3.05783527484e-07 0)
(6.61479076077e-05 2.78519593654e-07 0)
(6.56160952431e-05 2.5329264328e-07 0)
(6.51326987544e-05 2.30103731263e-07 0)
(6.46935627352e-05 2.09032186452e-07 0)
(6.42942683498e-05 1.90262109623e-07 0)
(6.39298841093e-05 1.74122052946e-07 0)
(6.35946166173e-05 1.61145371812e-07 0)
(6.32813073683e-05 1.52163819269e-07 0)
(6.29806879798e-05 1.48455519097e-07 0)
(6.26802508754e-05 1.51981540325e-07 0)
(6.23625110401e-05 1.65758253031e-07 0)
(6.20023619753e-05 1.94390770921e-07 0)
(6.15634666177e-05 2.44504547e-07 0)
(6.0995605308e-05 3.23356726641e-07 0)
(6.02573521692e-05 4.14896383654e-07 0)
(0.00121016953453 0.000302912427763 0)
(0.00116031980753 0.000315223510201 0)
(0.00102699326446 0.000238099082078 0)
(0.00088766724951 0.000171715434384 0)
(0.000767159874585 0.000124383639084 0)
(0.000668941758181 9.18339826948e-05 0)
(0.000590305948972 6.93422995187e-05 0)
(0.000527424800652 5.34972896489e-05 0)
(0.000476860441819 4.20605884693e-05 0)
(0.000435877202938 3.35971535658e-05 0)
(0.000402389169047 2.71837327905e-05 0)
(0.000374825983078 2.2217193777e-05 0)
(0.000352004464515 1.829532116e-05 0)
(0.000333026757752 1.51437317157e-05 0)
(0.000317204785176 1.2570894844e-05 0)
(0.000304005633079 1.04400966046e-05 0)
(0.000293012345019 8.65166171643e-06 0)
(0.000283895706781 7.13146082881e-06 0)
(0.000276393790954 5.82333116344e-06 0)
(0.000270296979972 4.68397795514e-06 0)
(0.000265436879616 3.67947821568e-06 0)
(0.000261678020176 2.78283890987e-06 0)
(0.000258911576294 1.97226175124e-06 0)
(0.000257050565253 1.22988998856e-06 0)
(0.000256026140284 5.4088969856e-07 0)
(0.000255784703502 -1.07232656379e-07 0)
(0.000256285637628 -7.25142212119e-07 0)
(0.000257499507218 -1.32206132741e-06 0)
(0.000259406618335 -1.90606475987e-06 0)
(0.000261995851563 -2.48430341893e-06 0)
(0.000265263699002 -3.06316917537e-06 0)
(0.000269213447464 -3.64841088442e-06 0)
(0.000273854457781 -4.24520738172e-06 0)
(0.0002792014942 -4.85819999451e-06 0)
(0.000285274059122 -5.49148462696e-06 0)
(0.000292095687635 -6.14856150901e-06 0)
(0.000299693153821 -6.83223921155e-06 0)
(0.000308095537451 -7.54448863491e-06 0)
(0.000317333096098 -8.28624263052e-06 0)
(0.00032743588525 -9.05713811144e-06 0)
(0.00033843206906 -9.85520048951e-06 0)
(0.000350345869348 -1.06764756674e-05 0)
(0.000363195112803 -1.15146232069e-05 0)
(0.000376988359174 -1.23604959986e-05 0)
(0.000391721629255 -1.32017464316e-05 0)
(0.000407374802484 -1.40225152249e-05 0)
(0.000423907819217 -1.48032736581e-05 0)
(0.000441256897763 -1.55208981456e-05 0)
(0.000459331051526 -1.61490520617e-05 0)
(0.000478009252427 -1.66589282533e-05 0)
(0.000497138615912 -1.70203652199e-05 0)
(0.000516533964685 -1.72032955317e-05 0)
(0.000535979056323 -1.71794296295e-05 0)
(0.000555229641531 -1.69240392927e-05 0)
(0.000574018377451 -1.64176970508e-05 0)
(0.000592061483378 -1.56478516506e-05 0)
(0.000609066916539 -1.46101580799e-05 0)
(0.000624743763896 -1.33095041011e-05 0)
(0.000638812469194 -1.17606592488e-05 0)
(0.000651015408933 -9.9884171455e-06 0)
(0.000661127180668 -8.0270444486e-06 0)
(0.000668963801931 -5.91885565155e-06 0)
(0.000674389925164 -3.71186434318e-06 0)
(0.000677323266542 -1.45671744166e-06 0)
(0.000677735786609 7.96609945155e-07 0)
(0.000675651684117 3.00175609604e-06 0)
(0.000671142794176 5.11804767544e-06 0)
(0.000664322301903 7.11156275026e-06 0)
(0.000655337739188 8.95523928686e-06 0)
(0.000644364102699 1.06282528552e-05 0)
(0.000631597658343 1.21150168021e-05 0)
(0.000617250653171 1.3404173056e-05 0)
(0.000601546838951 1.4487860802e-05 0)
(0.000584717498607 1.53614094522e-05 0)
(0.000566997593187 1.60234501364e-05 0)
(0.000548621709246 1.64763091687e-05 0)
(0.00052981965344 1.67264619221e-05 0)
(0.000510811758802 1.67848076231e-05 0)
(0.00049180416897 1.66665799923e-05 0)
(0.000472984492715 1.63908152026e-05 0)
(0.000454518239518 1.59794189199e-05 0)
(0.00043654636205 1.54559692644e-05 0)
(0.000419184077996 1.48444380982e-05 0)
(0.000402520969715 1.41680059489e-05 0)
(0.000386622209566 1.34481002276e-05 0)
(0.000371530658455 1.27037241248e-05 0)
(0.000357269542991 1.19510845945e-05 0)
(0.000343845424739 1.12034845422e-05 0)
(0.00033125121727 1.04714205427e-05 0)
(0.00031946906586 9.76282081913e-06 0)
(0.000308472966339 9.08336350745e-06 0)
(0.000298231054595 8.43682683159e-06 0)
(0.000288707541825 7.82543627355e-06 0)
(0.000279864301847 7.25018633343e-06 0)
(0.000271662136766 6.71112463798e-06 0)
(0.000264061758143 6.20759362513e-06 0)
(0.000257024525066 5.73843000889e-06 0)
(0.000250512980247 5.30212521596e-06 0)
(0.000244491222294 4.896951496e-06 0)
(0.000238925147887 4.52105893716e-06 0)
(0.00023378259269 4.17254852639e-06 0)
(0.000229033394903 3.84952597113e-06 0)
(0.000224649400838 3.55014041696e-06 0)
(0.000220604427838 3.2726115863e-06 0)
(0.00021687419642 3.01524828376e-06 0)
(0.000213436240495 2.77646071423e-06 0)
(0.000210269802069 2.55476864517e-06 0)
(0.000207355714673 2.34880713401e-06 0)
(0.000204676277941 2.15733132569e-06 0)
(0.000202215124123 1.97922171545e-06 0)
(0.000199957075742 1.81349126547e-06 0)
(0.000197887992098 1.65929587909e-06 0)
(0.000195994600615 1.51594998952e-06 0)
(0.000194264307175 1.38294945353e-06 0)
(0.00019268497737 1.26000461059e-06 0)
(0.000191244677946 1.14708737205e-06 0)
(0.00018993136456 1.04449768261e-06 0)
(0.000188732498466 9.52956857264e-07 0)
(0.000187634571405 8.73738401781e-07 0)
(0.000186622516552 8.08851192809e-07 0)
(0.00018567898865 7.61294997059e-07 0)
(0.000184783520687 7.35411559568e-07 0)
(0.000183911638856 7.37344315253e-07 0)
(0.000183034221412 7.75552644031e-07 0)
(0.000182117927915 8.61038833591e-07 0)
(0.000181128882656 1.00579700163e-06 0)
(0.000180045862283 1.21294587306e-06 0)
(0.0001788874036 1.42201900139e-06 0)
(0.00122477981138 0.000267963081635 0)
(0.00124108416556 0.000383718228479 0)
(0.00119620032632 0.000347814745193 0)
(0.00111347668707 0.000284049424609 0)
(0.00102053619791 0.00022549751209 0)
(0.000931078870954 0.000178395552209 0)
(0.000850532828047 0.000141962581281 0)
(0.000780289644039 0.000114001339377 0)
(0.000719978495273 9.24320455058e-05 0)
(0.000668572139893 7.5615289964e-05 0)
(0.000624891063464 6.23347059046e-05 0)
(0.000587814835015 5.17056342989e-05 0)
(0.000556357038926 4.30861945444e-05 0)
(0.000529679825945 3.60077773743e-05 0)
(0.00050708397871 3.01246683467e-05 0)
(0.000487990865919 2.51785873976e-05 0)
(0.00047192337046 2.0973953914e-05 0)
(0.000458488560258 1.73606166124e-05 0)
(0.00044736293239 1.42217186894e-05 0)
(0.000438280241663 1.14650918354e-05 0)
(0.00043102161965 9.01708648718e-06 0)
(0.000425407612311 6.8180972927e-06 0)
(0.000421291779784 4.81927975093e-06 0)
(0.000418555549761 2.98011313029e-06 0)
(0.000417104069537 1.26657193918e-06 0)
(0.000416862850747 -3.50259019863e-07 0)
(0.000417775040911 -1.89523970761e-06 0)
(0.000419799188279 -3.38998022919e-06 0)
(0.00042290739427 -4.85346226881e-06 0)
(0.000427083765585 -6.30250961361e-06 0)
(0.000432323089396 -7.75213324223e-06 0)
(0.000438629664987 -9.21576972763e-06 0)
(0.000446016230919 -1.07054234874e-05 0)
(0.000454502929353 -1.22317172781e-05 0)
(0.000464116249257 -1.38038505401e-05 0)
(0.000474887888412 -1.54294614658e-05 0)
(0.000486853470964 -1.71143860273e-05 0)
(0.000500051053599 -1.88623059481e-05 0)
(0.000514519350255 -2.06742783151e-05 0)
(0.000530295604178 -2.25481430297e-05 0)
(0.000547413039122 -2.44778116877e-05 0)
(0.00056589783112 -2.64524539581e-05 0)
(0.000585765561864 -2.84556161655e-05 0)
(0.000607017147529 -3.04643319801e-05 0)
(0.000629634286134 -3.24483159053e-05 0)
(0.000653574533799 -3.43693632958e-05 0)
(0.000678766204368 -3.61811094407e-05 0)
(0.000705103381902 -3.78293149185e-05 0)
(0.000732441429497 -3.92528330763e-05 0)
(0.000760593452661 -4.03853677215e-05 0)
(0.000789328208984 -4.11580420076e-05 0)
(0.000818369928534 -4.1502683586e-05 0)
(0.000847400411679 -4.13556129925e-05 0)
(0.000876063612007 -4.06616382617e-05 0)
(0.000903972719799 -3.93779387913e-05 0)
(0.000930719575066 -3.74775683451e-05 0)
(0.000955886089211 -3.49523862084e-05 0)
(0.000979057244983 -3.18152769247e-05 0)
(0.000999835147832 -2.81014927287e-05 0)
(0.00101785347472 -2.38688488066e-05 0)
(0.00103279148403 -1.91963927344e-05 0)
(0.00104438654406 -1.41811879501e-05 0)
(0.0010524440138 -8.93312474891e-06 0)
(0.00105684342056 -3.5682053447e-06 0)
(0.00105754031721 1.79868048375e-06 0)
(0.00105456389006 7.0602140848e-06 0)
(0.00104801107538 1.21212927125e-05 0)
(0.00103803835282 1.69015304898e-05 0)
(0.00102485245293 2.13357316363e-05 0)
(0.00100870105201 2.53727949832e-05 0)
(0.000989864191253 2.89737764735e-05 0)
(0.000968646729696 3.21098764533e-05 0)
(0.000945371743744 3.47609536181e-05 0)
(0.000920374520499 3.69148760131e-05 0)
(0.000893996699567 3.85677055083e-05 0)
(0.000866580191896 3.97244408249e-05 0)
(0.000838460708188 4.03998650783e-05 0)
(0.000809960998845 4.06190036703e-05 0)
(0.000781384158072 4.04168097423e-05 0)
(0.000753007499728 3.98369152521e-05 0)
(0.000725077531058 3.89295359875e-05 0)
(0.000697806438644 3.77488174126e-05 0)
(0.000671370303495 3.63500046007e-05 0)
(0.000645909040146 3.47868066638e-05 0)
(0.000621527862774 3.31092327789e-05 0)
(0.000598299953295 3.13620480847e-05 0)
(0.000576269951075 2.9583874423e-05 0)
(0.000555457891444 2.78068688939e-05 0)
(0.000535863270694 2.60568609003e-05 0)
(0.000517468987635 2.43538116181e-05 0)
(0.000500244988519 2.27124682268e-05 0)
(0.000484151511888 2.11431075607e-05 0)
(0.000469141886513 1.96522909508e-05 0)
(0.000455164877599 1.82435779903e-05 0)
(0.000442166604641 1.69181686378e-05 0)
(0.000430092071183 1.56754594925e-05 0)
(0.000418886354908 1.45135114412e-05 0)
(0.000408495508537 1.34294330716e-05 0)
(0.000398867220132 1.24196882428e-05 0)
(0.000389951277121 1.14803379896e-05 0)
(0.000381699873041 1.06072272608e-05 0)
(0.000374067790228 9.79612646534e-06 0)
(0.000367012486138 9.04283682087e-06 0)
(0.000360494105814 8.34326735509e-06 0)
(0.000354475438428 7.69349026576e-06 0)
(0.000348921831817 7.08978030682e-06 0)
(0.000343801075437 6.52864298178e-06 0)
(0.000339083259208 6.0068356258e-06 0)
(0.000334740613107 5.52138494298e-06 0)
(0.000330747330119 5.06960424923e-06 0)
(0.000327079373092 4.64911354597e-06 0)
(0.000323714264168 4.25786563031e-06 0)
(0.000320630853673 3.89418173478e-06 0)
(0.000317809063685 3.55680070538e-06 0)
(0.000315229599991 3.24494647223e-06 0)
(0.000312873625049 2.95841953541e-06 0)
(0.000310722384366 2.69771928934e-06 0)
(0.000308756780478 2.46420497269e-06 0)
(0.000306956894498 2.26030310182e-06 0)
(0.000305301469171 2.08976648139e-06 0)
(0.000303767397299 1.95797931631e-06 0)
(0.000302329320528 1.87227182697e-06 0)
(0.000300959563693 1.84212257853e-06 0)
(0.0002996288593 1.87889608804e-06 0)
(0.000298308724716 1.99412334633e-06 0)
(0.000296977009383 2.19347297096e-06 0)
(0.000295627845878 2.45745369744e-06 0)
(0.00029427912655 2.68468913391e-06 0)
(0.00122192798596 0.00022125528406 0)
(0.00125339623432 0.000382653422792 0)
(0.00125109039033 0.000396069233107 0)
(0.00121344822775 0.000356160737591 0)
(0.00115549404768 0.000304280867416 0)
(0.00108963085073 0.000254932719867 0)
(0.00102333059471 0.000212271711637 0)
(0.000960552137523 0.000176713849292 0)
(0.000903119012477 0.000147463808481 0)
(0.000851650064941 0.000123458828988 0)
(0.000806124275171 0.000103698032175 0)
(0.000766206858633 8.73359521303e-05 0)
(0.000731431015166 7.36895154131e-05 0)
(0.000701295640915 6.22170429183e-05 0)
(0.000675315303124 5.24915870519e-05 0)
(0.000653043670341 4.41764135367e-05 0)
(0.000634082540277 3.70047526215e-05 0)
(0.000618083323294 3.07638444717e-05 0)
(0.00060474480099 2.52826404447e-05 0)
(0.000593809250287 2.04224110211e-05 0)
(0.000585058048071 1.60695911136e-05 0)
(0.000578307326388 1.21303213485e-05 0)
(0.000573403947173 8.52626718003e-06 0)
(0.0005702219022 5.19140052582e-06 0)
(0.000568659157708 2.0695091824e-06 0)
(0.000568634919596 -8.87739340294e-07 0)
(0.000570087272922 -3.7223027511e-06 0)
(0.000572971142534 -6.47093393123e-06 0)
(0.000577256522825 -9.16609449822e-06 0)
(0.000582926921232 -1.18366466355e-05 0)
(0.00058997795932 -1.45083575239e-05 0)
(0.00059841607772 -1.72042387099e-05 0)
(0.000608257290422 -1.99447322775e-05 0)
(0.000619525932103 -2.27477476024e-05 0)
(0.000632253339166 -2.56285460395e-05 0)
(0.000646476401255 -2.85994659223e-05 0)
(0.000662235915562 -3.16694769954e-05 0)
(0.000679574671926 -3.48435523961e-05 0)
(0.000698535193682 -3.81218485446e-05 0)
(0.000719157058937 -4.14986900961e-05 0)
(0.000741473731602 -4.49613701975e-05 0)
(0.000765508843785 -4.8488797449e-05 0)
(0.000791271894506 -5.20500518149e-05 0)
(0.000818753367683 -5.5602952707e-05 0)
(0.000847919328434 -5.90927919362e-05 0)
(0.000878705632997 -6.24514367718e-05 0)
(0.000911011982944 -6.55970536527e-05 0)
(0.000944696162967 -6.84347253462e-05 0)
(0.00097956891016 -7.08582144555e-05 0)
(0.0010153899507 -7.27530470335e-05 0)
(0.00105186578091 -7.40009462142e-05 0)
(0.00108864973837 -7.44854534142e-05 0)
(0.00112534479177 -7.40983768262e-05 0)
(0.00116150928386 -7.27465640723e-05 0)
(0.00119666562536 -7.03584596715e-05 0)
(0.00123031171114 -6.68899861014e-05 0)
(0.00126193465486 -6.2329424148e-05 0)
(0.00129102632565 -5.67010636342e-05 0)
(0.00131710008159 -5.00673631766e-05 0)
(0.00133970796977 -4.25291921183e-05 0)
(0.00135845745503 -3.42235430143e-05 0)
(0.00137302647231 -2.53181143483e-05 0)
(0.00138317539947 -1.60025950041e-05 0)
(0.00138875462825 -6.47737077978e-06 0)
(0.00138970693367 3.05864328662e-06 0)
(0.00138606471571 1.2418895403e-05 0)
(0.00137794305288 2.14370874896e-05 0)
(0.00136552998881 2.99715205145e-05 0)
(0.00134907552332 3.79061047582e-05 0)
(0.00132888056478 4.51487787151e-05 0)
(0.0013052867037 5.16285116353e-05 0)
(0.00127866715969 5.72921436176e-05 0)
(0.00124941878467 6.21020439173e-05 0)
(0.00121795470162 6.60350882853e-05 0)
(0.00118469706051 6.90829513798e-05 0)
(0.00115006948589 7.12532732097e-05 0)
(0.0011144890346 7.25709635683e-05 0)
(0.0010783578057 7.30788392353e-05 0)
(0.00104205464511 7.28369713409e-05 0)
(0.00100592756829 7.19204846382e-05 0)
(0.000970287537247 7.04159621895e-05 0)
(0.000935404083088 6.84169337461e-05 0)
(0.000901503021188 6.60190813899e-05 0)
(0.000868766238641 6.33157719806e-05 0)
(0.000837333308539 6.03943712974e-05 0)
(0.000807304540393 5.73335837155e-05 0)
(0.000778745017643 5.42018604589e-05 0)
(0.000751689187022 5.10567699836e-05 0)
(0.000726145625928 4.79451387046e-05 0)
(0.000702101697984 4.49037420447e-05 0)
(0.000679527894446 4.19603378547e-05 0)
(0.000658381737703 3.9134868878e-05 0)
(0.000638611186833 3.64407036139e-05 0)
(0.000620157532658 3.38858263111e-05 0)
(0.000602957802173 3.14739218065e-05 0)
(0.000586946712283 2.92053278637e-05 0)
(0.000572058223242 2.70778467157e-05 0)
(0.000558226745919 2.50874199502e-05 0)
(0.000545388056111 2.3228678159e-05 0)
(0.000533479965502 2.14953803898e-05 0)
(0.000522442793663 1.98807595838e-05 0)
(0.000512219679716 1.83777898072e-05 0)
(0.00050275676643 1.69793898529e-05 0)
(0.000494003283987 1.56785761772e-05 0)
(0.000485911555561 1.44685764228e-05 0)
(0.000478436942388 1.33429131762e-05 0)
(0.000471537742016 1.22954661759e-05 0)
(0.000465175050028 1.13205200262e-05 0)
(0.000459312592554 1.04128035537e-05 0)
(0.000453916534364 9.56752630813e-06 0)
(0.000448955265097 8.780417323e-06 0)
(0.000444399164355 8.04777110809e-06 0)
(0.000440220344828 7.36650591073e-06 0)
(0.000436392371517 6.73423950058e-06 0)
(0.00043288995461 6.14938798687e-06 0)
(0.000429688614069 5.6112932488e-06 0)
(0.000426764316128 5.12038397763e-06 0)
(0.000424093086948 4.6783731629e-06 0)
(0.000421650618519 4.28848915811e-06 0)
(0.000419411899928 3.95572420819e-06 0)
(0.000417350938356 3.68705491748e-06 0)
(0.000415440686415 3.49152483484e-06 0)
(0.000413653374917 3.37993780539e-06 0)
(0.000411961567276 3.36359279615e-06 0)
(0.00041034037141 3.4507569898e-06 0)
(0.000408771106111 3.63781987015e-06 0)
(0.000407245107804 3.88826853991e-06 0)
(0.000405758836868 4.08886451062e-06 0)
(0.00121693491002 0.000182392387817 0)
(0.00124909955516 0.000357883424729 0)
(0.00126570844229 0.000406536186931 0)
(0.00125594951361 0.000393094873994 0)
(0.00122559909358 0.000355651330096 0)
(0.00118296688803 0.000312057658674 0)
(0.00113460151428 0.000269812401587 0)
(0.00108487671803 0.000231676411754 0)
(0.00103647854943 0.00019833253864 0)
(0.000990936909115 0.00016960068565 0)
(0.000949034118801 0.000144984754575 0)
(0.000911087460185 0.000123913303878 0)
(0.000877135618655 0.000105839847678 0)
(0.000847058436556 9.02792660478e-05 0)
(0.000820652304059 7.68158332903e-05 0)
(0.00079767671681 6.50993864476e-05 0)
(0.00077788237407 5.48372516751e-05 0)
(0.000761027597576 4.57853381045e-05 0)
(0.000746887444258 3.77398216934e-05 0)
(0.000735258308035 3.05299160144e-05 0)
(0.000725959784599 2.40118111468e-05 0)
(0.000718834917283 1.80636897535e-05 0)
(0.000713749522978 1.25816718033e-05 0)
(0.000710591030076 7.47653335677e-06 0)
(0.000709267090555 2.67106002087e-06 0)
(0.000709704120502 -1.90208227404e-06 0)
(0.000711845851289 -6.30204410279e-06 0)
(0.000715651934255 -1.05811452392e-05 0)
(0.000721096615894 -1.47859451046e-05 0)
(0.000728167474331 -1.89580527556e-05 0)
(0.000736864195655 -2.31347105918e-05 0)
(0.000747197361232 -2.73491692831e-05 0)
(0.000759187208582 -3.16308613052e-05 0)
(0.000772862321035 -3.60053721378e-05 0)
(0.000788258194471 -4.04942013084e-05 0)
(0.000805415622732 -4.51143001811e-05 0)
(0.000824378836879 -4.98773702377e-05 0)
(0.000845193327924 -5.47889054768e-05 0)
(0.000867903278814 -5.98469668872e-05 0)
(0.000892548530772 -6.5040687606e-05 0)
(0.000919161013628 -7.03485267085e-05 0)
(0.000947760582245 -7.57363200966e-05 0)
(0.000978350224984 -8.11552208437e-05 0)
(0.00101091064941 -8.65396793576e-05 0)
(0.00104539430909 -9.18056836556e-05 0)
(0.00108171901632 -9.68495546479e-05 0)
(0.00111976138922 -0.000101547656314 0)
(0.00115935050272 -0.000105757413789 0)
(0.00120026223784 -0.000109320005829 0)
(0.00124221493007 -0.000112064985871 0)
(0.00128486697242 -0.000113816877351 0)
(0.0013278170004 -0.000114403505134 0)
(0.00137060715214 -0.000113665527735 0)
(0.00141272966609 -0.000111466416766 0)
(0.0014536367934 -0.000107702073487 0)
(0.00149275373344 -0.00010230939596 0)
(0.00152949410988 -9.52733325079e-05 0)
(0.0015632774074 -8.66321218629e-05 0)
(0.00159354773503 -7.64803870482e-05 0)
(0.00161979317832 -6.4969498537e-05 0)
(0.00164156476892 -5.23043115522e-05 0)
(0.00165849374004 -3.87353336402e-05 0)
(0.00167030540087 -2.4545963464e-05 0)
(0.00167682795839 -1.00357887522e-05 0)
(0.00167799522761 4.49748613834e-06 0)
(0.00167384331301 1.87741842258e-05 0)
(0.00166450246109 3.2544312151e-05 0)
(0.00165018583297 4.5593986399e-05 0)
(0.00163117693024 5.77470050864e-05 0)
(0.00160781711636 6.88626484638e-05 0)
(0.0015804942047 7.88314119783e-05 0)
(0.00154963247155 8.75705175199e-05 0)
(0.00151568388813 9.5020625301e-05 0)
(0.00147912002575 0.000101144448997 0)
(0.00144042399745 0.000105927256593 0)
(0.00140008192179 0.00010937861468 0)
(0.00135857369408 0.000111534297434 0)
(0.00131636324974 0.000112457174898 0)
(0.00127388887341 0.000112236168889 0)
(0.00123155432281 0.000110982910828 0)
(0.0011897215385 0.000108826347737 0)
(0.00114870551934 0.000105906017988 0)
(0.00110877163779 0.000102364937177 0)
(0.00107013534621 9.83429870387e-05 0)
(0.00103296396495 9.3971464466e-05 0)
(0.00099738008531 8.93691353611e-05 0)
(0.000963466067146 8.4639846916e-05 0)
(0.000931269139725 7.98715389233e-05 0)
(0.000900806692462 7.51363756434e-05 0)
(0.000872071441126 7.04916820702e-05 0)
(0.000845036253188 6.59813871472e-05 0)
(0.000819658501446 6.16377260671e-05 0)
(0.000795883882775 5.74830141088e-05 0)
(0.000773649688442 5.35313626099e-05 0)
(0.000752887545959 4.97902568938e-05 0)
(0.000733525673163 4.62619540068e-05 0)
(0.000715490696141 4.29446852991e-05 0)
(0.000698709086715 3.98336668906e-05 0)
(0.000683108274705 3.6921931915e-05 0)
(0.000668617486792 3.42010041304e-05 0)
(0.000655168358893 3.16614346458e-05 0)
(0.000642695363277 2.9293223457e-05 0)
(0.000631136085873 2.70861461191e-05 0)
(0.000620431383641 2.5030003884e-05 0)
(0.000610525446743 2.31148134045e-05 0)
(0.000601365785595 2.13309499407e-05 0)
(0.000592903158826 1.96692560338e-05 0)
(0.00058509145458 1.81211259353e-05 0)
(0.000577887534565 1.66785747144e-05 0)
(0.000571251047612 1.53342999147e-05 0)
(0.000565144217387 1.40817428731e-05 0)
(0.000559531607095 1.29151562937e-05 0)
(0.000554379862775 1.18296843071e-05 0)
(0.000549657436046 1.08214609107e-05 0)
(0.000545334287195 9.88773212872e-06 0)
(0.000541381570629 9.02700603671e-06 0)
(0.000537771307413 8.23923219489e-06 0)
(0.000534476054809 7.52600660343e-06 0)
(0.000531468591451 6.89078740015e-06 0)
(0.000528721650796 6.33908512926e-06 0)
(0.000526207756541 5.87854975414e-06 0)
(0.000523899243179 5.51879523933e-06 0)
(0.000521768580052 5.27064196409e-06 0)
(0.000519789139953 5.14413630852e-06 0)
(0.000517936486416 5.14406280655e-06 0)
(0.000516189818475 5.26044722104e-06 0)
(0.000514531528457 5.44992945517e-06 0)
(0.000512939010544 5.6059924055e-06 0)
(0.00121285281904 0.000152604658466 0)
(0.00124175894615 0.000326600380923 0)
(0.00126588780307 0.000397081485485 0)
(0.00127230319018 0.000405893115877 0)
(0.00126125979003 0.00038424690727 0)
(0.00123739463351 0.000349959442465 0)
(0.00120554052668 0.000312130097251 0)
(0.00116952655355 0.000275097484332 0)
(0.00113208524313 0.000240750943951 0)
(0.00109505505634 0.000209754106289 0)
(0.00105961408178 0.000182175097677 0)
(0.00102647528661 0.000157808413422 0)
(0.000996033746859 0.000136338118301 0)
(0.000968472732542 0.000117419190747 0)
(0.000943838286403 0.000100716486161 0)
(0.000922090818237 8.59217879556e-05 0)
(0.000903140347733 7.27596624102e-05 0)
(0.000886870287192 6.09877634411e-05 0)
(0.000873153273303 5.03945626418e-05 0)
(0.000861861525631 4.07960580849e-05 0)
(0.000852873463494 3.2032253821e-05 0)
(0.000846077782807 2.39637943062e-05 0)
(0.000841375821842 1.64689217992e-05 0)
(0.000838682784583 9.44081286111e-06 0)
(0.000837928209062 2.78529495947e-06 0)
(0.000839055942221 -3.58108084864e-06 0)
(0.000842023790352 -9.73262490362e-06 0)
(0.000846802961862 -1.57358192963e-05 0)
(0.000853377375056 -2.16503661815e-05 0)
(0.000861742861827 -2.75299771018e-05 0)
(0.000871906280731 -3.34229265973e-05 0)
(0.000883884536486 -3.93723746388e-05 0)
(0.000897703488185 -4.54164549274e-05 0)
(0.000913396716449 -5.15881190561e-05 0)
(0.000931004109259 -5.79147203517e-05 0)
(0.000950570216732 -6.44173164712e-05 0)
(0.000972142316555 -7.11096673983e-05 0)
(0.000995768124505 -7.79969066689e-05 0)
(0.00102149307902 -8.5073870328e-05 0)
(0.00104935712652 -9.23230827278e-05 0)
(0.001079390937 -9.97124238766e-05 0)
(0.00111161148957 -0.000107192542942 0)
(0.00114601698986 -0.0001146941397 0)
(0.00118258111795 -0.000122125311545 0)
(0.00122124666428 -0.00012936925586 0)
(0.00126191869388 -0.000136282717511 0)
(0.0013044574902 -0.00014269566077 0)
(0.00134867166444 -0.000148412695054 0)
(0.00139431196276 -0.00015321675588 0)
(0.00144106643509 -0.000156875398171 0)
(0.00148855770856 -0.000159149778617 0)
(0.00153634308943 -0.000159806010435 0)
(0.00158391806907 -0.000158628151574 0)
(0.00163072353456 -0.000155431770186 0)
(0.00167615663779 -0.000150076948523 0)
(0.00171958495571 -0.00014247977694 0)
(0.00176036336908 -0.000132621739565 0)
(0.00179785302478 -0.00012055666645 0)
(0.00183144175656 -0.000106414900526 0)
(0.00186056528155 -9.04039522543e-05 0)
(0.0018847282322 -7.28043982556e-05 0)
(0.00190352359043 -5.39595757544e-05 0)
(0.00191664853355 -3.42583250816e-05 0)
(0.00192391452549 -1.41119766981e-05 0)
(0.00192525020256 6.07072734847e-06 0)
(0.00192069716081 2.59058985795e-05 0)
(0.00191040025265 4.5050356724e-05 0)
(0.00189459460196 6.32102191537e-05 0)
(0.00187359138054 8.01428946525e-05 0)
(0.00184776399483 9.56539563598e-05 0)
(0.00181753577997 0.000109591228204 0)
(0.00178336953326 0.000121838678502 0)
(0.00174575851705 0.000132312061096 0)
(0.00170521818605 0.000140957203578 0)
(0.00166227782495 0.000147750888273 0)
(0.00161747144358 0.000152703436797 0)
(0.00157132765203 0.000155861491294 0)
(0.00152435874649 0.000157309327603 0)
(0.00147704970525 0.000157167430452 0)
(0.00142984805771 0.000155587844125 0)
(0.00138315557523 0.000152746678025 0)
(0.00133732247479 0.000148834804183 0)
(0.00129264443626 0.00014404806806 0)
(0.00124936233863 0.000138578242501 0)
(0.00120766431842 0.000132605607751 0)
(0.00116768958627 0.000126293601307 0)
(0.00112953339855 0.000119785584458 0)
(0.00109325263389 0.000113203491219 0)
(0.00105887152767 0.000106647974744 0)
(0.00102638723544 0.000100199624603 0)
(0.000995775007058 9.39208591449e-05 0)
(0.000966992845139 8.78581660861e-05 0)
(0.000939985591206 8.20444451848e-05 0)
(0.000914688432445 7.65012832456e-05 0)