/*--------------------------------*- C++ -*----------------------------------*\
  =========                 |
  \\      /  F ield         | OpenFOAM: The Open Source CFD Toolbox
   \\    /   O peration     | Website:  https://openfoam.org
    \\  /    A nd           | Version:  7
     \\/     M anipulation  |
\*---------------------------------------------------------------------------*/
FoamFile
{
    version     2.0;
    format      ascii;
    class       volScalarField;
    location    "3300";
    object      Ci;
}
// * * * * * * * * * * * * * * * * * * * * * * * * * * * * * * * * * * * * * //

dimensions      [0 -3 0 0 1 0 0];

internalField   nonuniform List<scalar> 
8192
(
9.99999998634
10.0000000478
10.0000001417
10.0000002695
10.000000438
10.0000006408
10.0000008698
10.0000011178
10.0000013799
10.0000016517
10.0000019301
10.0000022117
10.0000024943
10.0000027749
10.0000030515
10.0000033212
10.0000035823
10.0000038318
10.0000040685
10.0000042895
10.0000044937
10.0000046784
10.0000048427
10.0000049839
10.0000051016
10.0000051933
10.000005259
10.0000052962
10.0000053055
10.0000052847
10.0000052347
10.0000051537
10.000005043
10.000004901
10.0000047296
10.0000045272
10.0000042965
10.0000040361
10.0000037492
10.0000034348
10.0000030968
10.0000027344
10.0000023522
10.00000195
10.0000015333
10.0000011022
10.0000006631
10.0000002167
9.99999977035
9.99999932518
9.99999888956
9.99999846513
9.99999806146
9.99999768099
9.99999733468
9.99999702592
9.999996767
9.99999656186
9.9999964233
9.99999635464
9.99999636777
9.99999646403
9.99999665314
9.99999693369
9.99999731275
9.99999778579
9.99999835641
9.99999901585
9.99999976265
10.0000005824
10.0000014678
10.0000023995
10.0000033669
10.0000043494
10.0000053369
10.0000063118
10.0000072675
10.0000081911
10.0000090805
10.0000099271
10.0000107322
10.0000114901
10.000012204
10.0000128699
10.0000134917
10.0000140666
10.0000145989
10.0000150864
10.0000155334
10.0000159381
10.0000163048
10.000016632
10.0000169236
10.0000171785
10.0000174005
10.0000175886
10.0000177468
10.0000178744
10.0000179753
10.0000180491
10.0000180999
10.0000181275
10.0000181358
10.000018125
10.0000180988
10.0000180574
10.0000180043
10.0000179397
10.0000178669
10.0000177858
10.0000176993
10.000017607
10.0000175116
10.0000174123
10.0000173113
10.0000172074
10.0000171021
10.0000169939
10.0000168835
10.0000167685
10.000016649
10.000016522
10.0000163879
10.0000162454
10.0000160985
10.0000159527
10.0000158215
10.0000157308
10.000000004
10.0000000839
10.0000001758
10.000000289
10.0000004321
10.0000006047
10.0000008042
10.0000010262
10.0000012666
10.0000015208
10.0000017852
10.0000020559
10.0000023302
10.0000026048
10.0000028774
10.0000031451
10.0000034058
10.0000036567
10.0000038963
10.0000041222
10.0000043327
10.0000045253
10.000004699
10.0000048512
10.0000049813
10.0000050871
10.0000051681
10.0000052225
10.0000052503
10.0000052497
10.0000052212
10.0000051634
10.0000050772
10.0000049613
10.0000048172
10.0000046438
10.0000044431
10.0000042143
10.0000039599
10.0000036794
10.000003376
10.0000030493
10.0000027032
10.0000023377
10.0000019575
10.0000015631
10.0000011598
10.0000007486
10.0000003357
9.99999992243
9.99999951583
9.99999911777
9.99999873621
9.99999837379
9.99999803964
9.99999773728
9.99999747698
9.99999726286
9.99999710564
9.99999700915
9.99999698345
9.99999703097
9.99999716012
9.99999737128
9.99999767065
9.9999980561
9.99999853088
9.99999908926
9.9999997301
10.0000004428
10.0000012212
10.0000020502
10.0000029203
10.0000038146
10.0000047235
10.0000056316
10.0000065315
10.0000074115
10.0000082673
10.0000090908
10.0000098807
10.0000106314
10.0000113438
10.0000120141
10.0000126442
10.0000132315
10.0000137787
10.0000142839
10.0000147501
10.000015176
10.0000155649
10.0000159156
10.0000162311
10.0000165107
10.0000167575
10.000016971
10.0000171544
10.0000173074
10.0000174333
10.0000175322
10.0000176075
10.0000176594
10.0000176914
10.0000177037
10.0000176999
10.0000176802
10.000017648
10.0000176037
10.0000175501
10.0000174875
10.0000174185
10.0000173431
10.0000172636
10.0000171797
10.0000170931
10.0000170031
10.0000169112
10.0000168159
10.000016718
10.0000166154
10.0000165079
10.0000163932
10.0000162709
10.0000161397
10.0000160019
10.0000158633
10.0000157358
10.0000156342
10.0000000053
10.0000000964
10.0000001887
10.0000002883
10.0000004056
10.000000543
10.0000007015
10.0000008803
10.0000010783
10.0000012929
10.0000015219
10.0000017618
10.0000020103
10.0000022639
10.0000025203
10.0000027763
10.0000030299
10.0000032778
10.0000035187
10.0000037494
10.000003969
10.0000041745
10.0000043651
10.000004538
10.000004693
10.0000048273
10.0000049411
10.0000050318
10.0000051001
10.0000051434
10.0000051629
10.0000051564
10.0000051253
10.0000050676
10.0000049854
10.0000048766
10.0000047439
10.0000045854
10.0000044043
10.0000041988
10.0000039728
10.0000037246
10.0000034588
10.0000031739
10.000002875
10.0000025611
10.0000022379
10.0000019045
10.0000015674
10.0000012257
10.0000008868
10.0000005498
10.0000002228
9.99999990542
9.99999960651
9.99999932632
9.99999907466
9.99999885229
9.9999986697
9.99999852767
9.99999843668
9.99999839684
9.99999841792
9.99999849889
9.99999864831
9.99999886374
9.99999915193
9.99999950825
9.99999993644
10.0000004285
10.0000009844
10.0000015924
10.0000022493
10.0000029413
10.0000036636
10.0000044026
10.0000051537
10.0000059048
10.0000066527
10.0000073875
10.0000081076
10.000008805
10.0000094797
10.0000101254
10.0000107432
10.0000113284
10.0000118828
10.0000124028
10.0000128909
10.0000133443
10.0000137658
10.0000141533
10.0000145097
10.0000148332
10.000015127
10.0000153896
10.0000156243
10.0000158299
10.0000160099
10.0000161634
10.0000162939
10.0000164009
10.0000164879
10.0000165546
10.0000166046
10.0000166377
10.0000166571
10.0000166629
10.0000166581
10.0000166426
10.0000166192
10.0000165876
10.0000165503
10.0000165068
10.0000164592
10.0000164066
10.0000163509
10.0000162906
10.0000162271
10.0000161581
10.0000160843
10.0000160029
10.0000159145
10.0000158169
10.0000157106
10.0000155987
10.0000154929
10.0000153873
10.0000000043
10.000000105
10.0000001989
10.0000002954
10.0000004026
10.0000005225
10.0000006563
10.0000008048
10.0000009682
10.0000011459
10.0000013371
10.0000015402
10.0000017537
10.0000019752
10.0000022029
10.0000024343
10.0000026673
10.0000028994
10.0000031287
10.0000033529
10.0000035703
10.0000037786
10.0000039765
10.0000041619
10.0000043338
10.0000044902
10.0000046305
10.0000047529
10.0000048571
10.0000049415
10.0000050062
10.0000050498
10.0000050727
10.0000050738
10.0000050539
10.0000050119
10.000004949
10.0000048645
10.0000047598
10.0000046344
10.0000044901
10.0000043268
10.0000041465
10.0000039493
10.0000037379
10.0000035125
10.0000032763
10.0000030296
10.0000027761
10.0000025163
10.000002254
10.0000019901
10.0000017289
10.0000014715
10.0000012226
10.0000009839
10.000000761
10.0000005562
10.0000003755
10.0000002216
10.0000001005
10.0000000147
9.99999996973
9.99999996716
10.0000000116
10.000000104
10.0000002477
10.0000004422
10.0000006894
10.0000009865
10.000001333
10.0000017237
10.0000021559
10.0000026231
10.0000031216
10.0000036444
10.0000041879
10.0000047455
10.0000053138
10.0000058867
10.0000064613
10.0000070321
10.0000075969
10.0000081508
10.0000086921
10.0000092169
10.0000097244
10.0000102114
10.0000106777
10.0000111211
10.0000115417
10.000011938
10.0000123107
10.0000126585
10.0000129824
10.0000132817
10.0000135576
10.0000138097
10.0000140394
10.0000142467
10.0000144332
10.000014599
10.0000147461
10.0000148748
10.000014987
10.0000150831
10.0000151653
10.0000152339
10.0000152909
10.0000153367
10.000015373
10.0000154003
10.00001542
10.0000154323
10.0000154386
10.0000154386
10.0000154336
10.0000154229
10.0000154073
10.0000153857
10.0000153582
10.000015323
10.00001528
10.0000152276
10.0000151669
10.0000150971
10.000015036
10.0000149391
10.0000000077
10.0000001181
10.000000221
10.0000003198
10.0000004239
10.0000005356
10.0000006565
10.0000007871
10.0000009285
10.0000010808
10.0000012438
10.0000014168
10.0000015993
10.0000017898
10.0000019872
10.0000021897
10.0000023959
10.0000026039
10.0000028121
10.0000030186
10.0000032218
10.0000034199
10.0000036115
10.0000037947
10.0000039687
10.0000041315
10.0000042824
10.0000044198
10.0000045433
10.0000046514
10.0000047439
10.0000048196
10.0000048785
10.0000049197
10.0000049434
10.000004949
10.0000049369
10.0000049066
10.0000048589
10.0000047935
10.0000047115
10.0000046126
10.0000044984
10.000004369
10.0000042261
10.00000407
10.0000039029
10.0000037253
10.0000035398
10.0000033468
10.0000031493
10.0000029479
10.0000027458
10.0000025439
10.0000023458
10.000002153
10.0000019697
10.0000017979
10.0000016427
10.0000015062
10.0000013936
10.0000013068
10.00000125
10.0000012243
10.0000012329
10.0000012761
10.0000013559
10.0000014715
10.0000016239
10.0000018108
10.0000020314
10.0000022821
10.000002561
10.0000028639
10.000003189
10.0000035325
10.0000038931
10.0000042675
10.0000046546
10.0000050514
10.0000054569
10.000005868
10.0000062833
10.0000066998
10.000007116
10.000007529
10.0000079374
10.0000083387
10.0000087319
10.0000091147
10.0000094864
10.0000098452
10.0000101908
10.0000105218
10.000010838
10.0000111385
10.0000114234
10.0000116919
10.0000119446
10.000012181
10.0000124019
10.0000126071
10.0000127976
10.0000129733
10.0000131354
10.000013284
10.0000134204
10.0000135448
10.0000136584
10.0000137615
10.0000138552
10.0000139397
10.0000140161
10.0000140845
10.0000141457
10.0000141999
10.0000142475
10.0000142886
10.0000143233
10.0000143512
10.0000143722
10.0000143851
10.0000143895
10.0000143835
10.0000143698
10.0000143431
10.0000143333
10.0000142626
10.000000008
10.0000001256
10.0000002333
10.0000003377
10.000000445
10.0000005565
10.0000006732
10.000000796
10.0000009258
10.000001063
10.000001208
10.0000013607
10.0000015207
10.0000016874
10.0000018601
10.0000020376
10.000002219
10.000002403
10.0000025884
10.0000027737
10.0000029577
10.0000031388
10.000003316
10.0000034876
10.0000036528
10.00000381
10.0000039584
10.0000040967
10.0000042242
10.0000043398
10.000004443
10.0000045328
10.000004609
10.0000046707
10.000004718
10.00000475
10.0000047673
10.000004769
10.0000047557
10.000004727
10.0000046836
10.0000046252
10.0000045528
10.0000044665
10.0000043675
10.000004256
10.0000041335
10.0000040007
10.0000038593
10.0000037099
10.0000035547
10.0000033945
10.0000032315
10.000003067
10.0000029037
10.0000027433
10.0000025893
10.0000024443
10.0000023126
10.0000021974
10.0000021028
10.0000020317
10.0000019872
10.0000019709
10.0000019843
10.0000020274
10.0000021002
10.0000022018
10.0000023307
10.0000024845
10.0000026607
10.0000028554
10.0000030657
10.0000032881
10.0000035205
10.0000037604
10.0000040072
10.0000042594
10.0000045176
10.0000047807
10.0000050495
10.0000053231
10.0000056019
10.0000058847
10.0000061716
10.0000064612
10.0000067532
10.0000070461
10.0000073394
10.0000076316
10.0000079221
10.0000082095
10.0000084932
10.000008772
10.0000090452
10.0000093117
10.0000095712
10.0000098227
10.0000100661
10.0000103005
10.000010526
10.000010742
10.0000109489
10.0000111462
10.0000113342
10.0000115129
10.0000116826
10.0000118433
10.0000119955
10.0000121392
10.0000122748
10.0000124023
10.0000125223
10.0000126347
10.0000127399
10.0000128378
10.0000129288
10.0000130126
10.0000130895
10.0000131589
10.0000132209
10.0000132743
10.0000133193
10.000013353
10.0000133801
10.0000133895
10.0000134218
10.0000133846
10.0000000104
10.0000001334
10.0000002489
10.0000003579
10.0000004678
10.0000005798
10.0000006948
10.0000008135
10.0000009368
10.000001065
10.0000011988
10.000001338
10.0000014828
10.0000016326
10.0000017872
10.0000019457
10.0000021075
10.0000022716
10.0000024371
10.000002603
10.0000027683
10.0000029318
10.0000030925
10.0000032493
10.0000034012
10.0000035471
10.0000036861
10.0000038173
10.0000039398
10.0000040528
10.0000041557
10.0000042476
10.0000043284
10.0000043972
10.0000044539
10.0000044978
10.0000045291
10.000004547
10.0000045521
10.0000045437
10.0000045222
10.0000044875
10.0000044401
10.00000438
10.0000043078
10.0000042241
10.0000041295
10.0000040249
10.0000039112
10.0000037895
10.0000036608
10.0000035264
10.0000033877
10.0000032462
10.0000031037
10.0000029626
10.0000028256
10.000002696
10.0000025778
10.0000024751
10.000002392
10.0000023324
10.0000022992
10.0000022945
10.0000023193
10.0000023734
10.0000024561
10.0000025657
10.0000026997
10.0000028549
10.0000030275
10.0000032132
10.0000034076
10.0000036069
10.0000038079
10.0000040083
10.0000042067
10.0000044024
10.0000045955
10.0000047861
10.0000049752
10.0000051635
10.0000053518
10.0000055408
10.0000057314
10.0000059239
10.000006119
10.0000063168
10.0000065174
10.000006721
10.0000069272
10.0000071357
10.0000073463
10.0000075582
10.0000077711
10.0000079841
10.0000081968
10.0000084084
10.0000086182
10.0000088258
10.0000090305
10.0000092318
10.0000094293
10.0000096225
10.000009811
10.0000099947
10.0000101731
10.000010346
10.0000105134
10.0000106749
10.0000108304
10.0000109797
10.0000111229
10.0000112596
10.0000113898
10.0000115134
10.0000116303
10.0000117402
10.0000118431
10.0000119387
10.0000120266
10.000012106
10.0000121772
10.0000122368
10.0000122911
10.0000123258
10.0000123831
10.0000123774
10.0000000091
10.0000001352
10.0000002528
10.0000003666
10.0000004813
10.0000005969
10.0000007135
10.0000008318
10.0000009527
10.0000010766
10.0000012041
10.0000013353
10.0000014704
10.0000016092
10.0000017515
10.0000018967
10.0000020445
10.0000021939
10.0000023445
10.0000024953
10.0000026457
10.0000027945
10.0000029411
10.0000030844
10.0000032239
10.0000033582
10.0000034871
10.0000036092
10.0000037245
10.0000038314
10.0000039304
10.0000040196
10.0000041002
10.0000041697
10.0000042299
10.0000042782
10.0000043168
10.0000043426
10.0000043584
10.0000043612
10.0000043535
10.0000043329
10.0000043014
10.0000042576
10.0000042028
10.0000041367
10.0000040601
10.0000039734
10.0000038774
10.0000037727
10.0000036603
10.0000035411
10.0000034162
10.0000032869
10.0000031547
10.0000030218
10.0000028909
10.0000027657
10.0000026503
10.0000025498
10.000002469
10.0000024127
10.0000023846
10.0000023873
10.0000024215
10.0000024874
10.000002583
10.0000027063
10.0000028538
10.0000030217
10.0000032051
10.0000033989
10.0000035981
10.0000037981
10.0000039954
10.0000041871
10.0000043716
10.0000045478
10.0000047157
10.0000048755
10.0000050279
10.0000051737
10.0000053142
10.0000054503
10.0000055836
10.000005715
10.0000058461
10.0000059777
10.0000061111
10.0000062469
10.000006386
10.0000065287
10.0000066755
10.0000068261
10.0000069809
10.0000071394
10.0000073015
10.0000074665
10.0000076341
10.0000078038
10.0000079749
10.0000081469
10.0000083193
10.0000084913
10.0000086625
10.0000088322
10.0000090001
10.0000091654
10.0000093279
10.0000094868
10.000009642
10.0000097928
10.0000099389
10.00001008
10.0000102157
10.0000103456
10.0000104695
10.000010587
10.000010698
10.000010802
10.0000108988
10.0000109875
10.0000110684
10.0000111384
10.0000112029
10.0000112502
10.0000113135
10.0000113315
10.0000000111
10.0000001409
10.0000002641
10.000000381
10.0000004978
10.0000006149
10.0000007323
10.0000008506
10.0000009702
10.0000010917
10.0000012154
10.0000013416
10.0000014705
10.0000016021
10.0000017362
10.0000018724
10.0000020103
10.0000021495
10.0000022893
10.0000024292
10.0000025684
10.0000027062
10.0000028419
10.0000029748
10.0000031043
10.0000032292
10.0000033497
10.0000034639
10.0000035729
10.0000036739
10.0000037694
10.0000038549
10.0000039351
10.0000040033
10.0000040667
10.0000041162
10.0000041616
10.0000041915
10.0000042173
10.000004227
10.0000042317
10.000004221
10.0000042036
10.0000041723
10.0000041324
10.0000040807
10.0000040192
10.0000039475
10.0000038662
10.000003776
10.0000036772
10.0000035708
10.0000034573
10.0000033377
10.0000032133
10.0000030859
10.0000029581
10.0000028335
10.0000027167
10.0000026133
10.0000025289
10.0000024694
10.0000024391
10.0000024415
10.0000024775
10.0000025468
10.0000026475
10.0000027766
10.0000029303
10.0000031043
10.0000032932
10.0000034917
10.0000036943
10.0000038965
10.0000040942
10.0000042848
10.0000044662
10.0000046375
10.000004798
10.000004948
10.0000050874
10.0000052173
10.0000053381
10.0000054512
10.0000055577
10.000005659
10.0000057565
10.0000058517
10.000005946
10.0000060408
10.0000061371
10.0000062361
10.0000063384
10.0000064448
10.0000065556
10.0000066711
10.0000067913
10.0000069161
10.0000070451
10.0000071783
10.000007315
10.0000074549
10.0000075972
10.0000077416
10.0000078872
10.0000080336
10.00000818
10.0000083259
10.0000084705
10.0000086133
10.0000087537
10.0000088911
10.000009025
10.0000091549
10.0000092802
10.0000094007
10.0000095158
10.0000096252
10.0000097286
10.0000098258
10.000009916
10.0000099992
10.0000100745
10.0000101413
10.0000102004
10.0000102488
10.0000103018
10.0000103335
10.0000000096
10.0000001416
10.0000002661
10.0000003868
10.0000005079
10.0000006285
10.0000007486
10.0000008684
10.0000009885
10.0000011094
10.0000012316
10.0000013553
10.0000014807
10.0000016079
10.0000017369
10.0000018673
10.0000019989
10.0000021313
10.000002264
10.0000023964
10.0000025282
10.0000026584
10.000002787
10.0000029124
10.0000030355
10.0000031536
10.0000032691
10.0000033773
10.0000034835
10.0000035794
10.000003675
10.0000037562
10.0000038404
10.000003905
10.0000039769
10.0000040232
10.0000040817
10.000004109
10.0000041521
10.0000041606
10.0000041851
10.0000041759
10.0000041783
10.0000041526
10.0000041305
10.0000040883
10.0000040421
10.0000039823
10.0000039142
10.0000038359
10.0000037486
10.0000036523
10.0000035475
10.0000034347
10.0000033147
10.0000031889
10.0000030596
10.0000029306
10.0000028067
10.0000026948
10.0000026015
10.0000025346
10.0000024994
10.0000025009
10.0000025397
10.0000026156
10.000002725
10.0000028643
10.000003028
10.000003211
10.000003407
10.0000036101
10.0000038147
10.0000040161
10.0000042109
10.0000043965
10.0000045716
10.0000047354
10.0000048878
10.0000050287
10.0000051586
10.0000052778
10.000005387
10.0000054871
10.0000055791
10.0000056642
10.0000057439
10.0000058194
10.0000058923
10.0000059641
10.000006036
10.0000061092
10.0000061848
10.0000062636
10.0000063462
10.0000064331
10.0000065245
10.0000066206
10.0000067212
10.0000068262
10.0000069353
10.0000070481
10.0000071641
10.0000072827
10.0000074033
10.0000075254
10.0000076482
10.0000077712
10.0000078935
10.0000080147
10.000008134
10.0000082508
10.0000083646
10.0000084749
10.0000085811
10.0000086828
10.0000087795
10.0000088712
10.000008957
10.0000090374
10.0000091109
10.000009179
10.0000092384
10.0000092927
10.0000093359
10.000009377
10.0000094094
10.0000094458
10.0000000115
10.0000001473
10.0000002771
10.0000004003
10.0000005231
10.0000006453
10.0000007668
10.0000008875
10.0000010081
10.0000011289
10.0000012504
10.0000013727
10.000001496
10.0000016206
10.0000017463
10.0000018731
10.0000020006
10.0000021285
10.0000022566
10.0000023841
10.0000025111
10.0000026361
10.0000027602
10.0000028805
10.0000030001
10.0000031131
10.0000032269
10.00000333
10.0000034374
10.0000035275
10.0000036289
10.0000037025
10.0000037991
10.0000038526
10.0000039457
10.0000039757
10.000004066
10.0000040709
10.0000041559
10.0000041377
10.0000042105
10.0000041752
10.0000042254
10.0000041809
10.0000041986
10.00000415
10.0000041316
10.0000040773
10.0000040273
10.0000039608
10.0000038866
10.0000038023
10.000003708
10.0000036039
10.0000034902
10.0000033675
10.0000032379
10.0000031047
10.0000029732
10.0000028508
10.0000027461
10.000002668
10.0000026243
10.0000026205
10.0000026585
10.000002737
10.0000028518
10.0000029973
10.0000031671
10.0000033547
10.0000035533
10.0000037566
10.0000039588
10.0000041556
10.0000043435
10.0000045205
10.0000046856
10.0000048388
10.0000049803
10.0000051106
10.0000052301
10.0000053396
10.0000054393
10.0000055306
10.0000056135
10.0000056892
10.0000057588
10.0000058237
10.0000058853
10.0000059449
10.0000060038
10.0000060632
10.0000061242
10.0000061876
10.0000062541
10.0000063242
10.0000063983
10.0000064764
10.0000065586
10.0000066448
10.0000067347
10.0000068279
10.0000069239
10.0000070223
10.0000071225
10.0000072239
10.0000073257
10.0000074274
10.0000075284
10.0000076279
10.0000077254
10.0000078203
10.000007912
10.0000080001
10.0000080841
10.0000081637
10.0000082383
10.0000083081
10.0000083721
10.0000084314
10.0000084837
10.0000085321
10.0000085708
10.0000086082
10.0000086306
10.0000086599
10.0000086681
10.0000087026
10.0000000101
10.0000001482
10.0000002793
10.0000004063
10.0000005331
10.0000006589
10.0000007833
10.0000009064
10.0000010286
10.0000011505
10.0000012723
10.0000013945
10.0000015172
10.0000016406
10.0000017648
10.0000018896
10.0000020149
10.0000021402
10.0000022658
10.0000023903
10.0000025149
10.0000026366
10.000002759
10.0000028756
10.000002995
10.0000031037
10.0000032201
10.0000033171
10.0000034321
10.0000035124
10.0000036297
10.0000036862
10.0000038122
10.0000038356
10.0000039784
10.0000039585
10.0000041258
10.0000040548
10.0000042484
10.0000041271
10.0000043362
10.0000041801
10.0000043773
10.0000042164
10.0000043649
10.0000042307
10.0000043033
10.0000042084
10.0000042052
10.0000041343
10.000004079
10.0000040045
10.0000039193
10.000003823
10.000003713
10.0000035903
10.0000034555
10.000003312
10.0000031653
10.0000030245
10.0000029001
10.000002805
10.0000027492
10.0000027415
10.0000027838
10.0000028749
10.0000030072
10.0000031729
10.0000033619
10.000003566
10.0000037766
10.0000039866
10.00000419
10.0000043824
10.0000045613
10.0000047255
10.0000048753
10.0000050113
10.0000051349
10.000005247
10.0000053489
10.0000054414
10.0000055253
10.0000056015
10.0000056709
10.0000057343
10.000005793
10.0000058473
10.0000058988
10.0000059486
10.0000059979
10.0000060478
10.0000060993
10.0000061531
10.0000062099
10.00000627
10.0000063337
10.0000064012
10.0000064722
10.0000065468
10.0000066244
10.0000067048
10.0000067874
10.0000068717
10.0000069571
10.0000070429
10.0000071285
10.0000072133
10.0000072966
10.0000073779
10.0000074565
10.0000075319
10.0000076037
10.0000076714
10.0000077347
10.0000077933
10.0000078467
10.0000078953
10.0000079381
10.0000079766
10.000008008
10.0000080368
10.0000080551
10.0000080753
10.0000080777
10.000008094
10.0000080801
10.000008109
10.000000012
10.000000154
10.0000002902
10.0000004196
10.0000005482
10.0000006758
10.0000008019
10.0000009266
10.0000010503
10.0000011732
10.0000012958
10.0000014184
10.0000015411
10.0000016641
10.0000017878
10.0000019115
10.0000020359
10.0000021597
10.0000022843
10.0000024068
10.0000025307
10.00000265
10.0000027728
10.0000028862
10.0000030082
10.0000031118
10.0000032352
10.000003323
10.0000034532
10.0000035157
10.0000036632
10.000003685
10.0000038674
10.0000038257
10.0000040684
10.0000039328
10.0000042663
10.0000040051
10.0000044546
10.0000040492
10.0000046143
10.0000040831
10.0000047145
10.000004131
10.000004725
10.0000042053
10.0000046403
10.0000042841
10.0000044953
10.0000043143
10.00000434
10.0000042536
10.0000041862
10.0000041023
10.0000039973
10.0000038778
10.0000037395
10.0000035861
10.0000034229
10.0000032599
10.0000031112
10.0000029926
10.0000029189
10.0000029011
10.0000029439
10.0000030442
10.0000031927
10.0000033768
10.0000035842
10.0000038037
10.0000040256
10.0000042418
10.0000044463
10.0000046349
10.0000048055
10.0000049578
10.0000050928
10.0000052122
10.000005318
10.0000054121
10.0000054959
10.0000055708
10.0000056379
10.0000056982
10.0000057527
10.0000058024
10.0000058483
10.0000058916
10.0000059333
10.0000059739
10.0000060147
10.0000060566
10.0000061004
10.0000061469
10.0000061965
10.0000062496
10.0000063062
10.0000063665
10.0000064301
10.0000064968
10.0000065662
10.0000066378
10.0000067111
10.0000067853
10.0000068599
10.0000069341
10.0000070074
10.000007079
10.0000071484
10.0000072149
10.0000072781
10.0000073374
10.0000073924
10.0000074428
10.0000074883
10.0000075289
10.0000075641
10.0000075943
10.0000076188
10.0000076391
10.0000076526
10.0000076642
10.0000076654
10.0000076704
10.0000076565
10.0000076609
10.0000076305
10.0000076523
10.0000000108
10.0000001552
10.000000293
10.0000004259
10.0000005582
10.0000006893
10.0000008185
10.000000946
10.000001072
10.0000011969
10.0000013212
10.0000014449
10.0000015686
10.0000016922
10.0000018163
10.0000019401
10.0000020647
10.000002188
10.0000023129
10.0000024345
10.0000025594
10.0000026771
10.0000028023
10.0000029128
10.0000030403
10.0000031378
10.0000032729
10.000003348
10.0000035018
10.0000035374
10.0000037313
10.0000036978
10.0000039695
10.0000038177
10.0000042273
10.0000038831
10.0000045157
10.0000038826
10.0000048365
10.0000038187
10.000005167
10.0000037246
10.000005444
10.000003674
10.0000055697
10.0000037551
10.0000054638
10.0000039968
10.0000051516
10.0000042971
10.0000047859
10.0000044707
10.0000045133
10.0000044191
10.0000043103
10.0000041968
10.0000040448
10.000003872
10.000003678
10.0000034769
10.0000032886
10.0000031329
10.0000030299
10.0000030003
10.0000030508
10.0000031771
10.000003362
10.0000035874
10.0000038349
10.0000040898
10.0000043396
10.0000045746
10.0000047884
10.0000049773
10.0000051406
10.0000052792
10.0000053959
10.0000054935
10.0000055758
10.0000056453
10.0000057049
10.000005756
10.0000058004
10.0000058391
10.0000058734
10.0000059043
10.0000059332
10.000005961
10.0000059889
10.0000060176
10.0000060478
10.0000060801
10.0000061154
10.000006154
10.0000061966
10.000006243
10.0000062935
10.0000063477
10.0000064055
10.0000064662
10.0000065295
10.0000065946
10.0000066609
10.0000067277
10.0000067943
10.0000068598
10.0000069237
10.0000069853
10.0000070439
10.0000070988
10.0000071499
10.0000071963
10.0000072382
10.0000072747
10.0000073063
10.0000073322
10.0000073531
10.0000073684
10.0000073789
10.0000073844
10.0000073845
10.000007382
10.0000073712
10.0000073634
10.000007339
10.0000073327
10.0000072927
10.000007306
10.0000000127
10.0000001609
10.0000003035
10.0000004386
10.0000005726
10.0000007053
10.0000008365
10.0000009659
10.0000010939
10.0000012206
10.0000013466
10.0000014717
10.0000015968
10.0000017213
10.0000018464
10.0000019707
10.0000020962
10.0000022197
10.0000023457
10.000002467
10.0000025937
10.0000027104
10.000002839
10.0000029469
10.0000030811
10.0000031727
10.000003321
10.0000033827
10.0000035628
10.0000035685
10.0000038154
10.0000037168
10.0000040953
10.0000038056
10.0000044287
10.0000038022
10.0000048512
10.0000036658
10.0000053983
10.0000033647
10.0000060766
10.0000029163
10.0000068127
10.0000024446
10.0000074016
10.0000022065
10.0000075386
10.000002481
10.0000070231
10.0000032946
10.0000060409
10.0000042272
10.0000051383
10.0000047031
10.0000046717
10.0000045908
10.0000043993
10.000004215
10.0000039797
10.0000037402
10.0000035075
10.000003289
10.0000031361
10.0000030924
10.0000031536
10.00000329
10.00000348
10.0000037146
10.0000039864
10.0000042803
10.0000045758
10.0000048524
10.0000050972
10.0000053042
10.0000054734
10.0000056081
10.0000057132
10.0000057942
10.0000058564
10.0000059043
10.0000059413
10.0000059701
10.0000059926
10.0000060102
10.0000060243
10.0000060364
10.0000060477
10.0000060594
10.0000060726
10.0000060882
10.0000061069
10.0000061291
10.0000061551
10.0000061856
10.0000062206
10.0000062602
10.0000063041
10.0000063523
10.0000064041
10.0000064591
10.0000065164
10.0000065755
10.0000066355
10.0000066957
10.0000067552
10.0000068132
10.0000068691
10.0000069219
10.0000069715
10.0000070167
10.0000070579
10.0000070934
10.0000071247
10.0000071495
10.0000071703
10.0000071838
10.0000071942
10.0000071967
10.0000071974
10.0000071898
10.0000071816
10.0000071656
10.0000071484
10.0000071266
10.0000070983
10.0000070768
10.0000070347
10.00000703
10.0000000117
10.0000001623
10.0000003064
10.0000004448
10.0000005821
10.000000718
10.0000008521
10.0000009843
10.000001115
10.0000012441
10.0000013723
10.0000014995
10.0000016265
10.0000017527
10.0000018794
10.000002005
10.0000021321
10.0000022565
10.0000023843
10.0000025063
10.0000026354
10.0000027524
10.0000028845
10.0000029919
10.0000031319
10.0000032211
10.0000033796
10.0000034343
10.0000036337
10.0000036214
10.0000039072
10.0000037641
10.0000042252
10.0000038286
10.0000046325
10.0000037563
10.0000052026
10.0000034553
10.0000060395
10.000002807
10.0000072538
10.0000017161
10.0000088762
10.0000002393
10.0000106871
9.99999877814
10.0000120561
9.99999814239
10.0000120712
9.99999914059
10.0000102554
10.0000016452
10.0000074353
10.0000041413
10.0000053553
10.0000050312
10.0000046956
10.0000045716
10.0000042509
10.0000040008
10.0000036298
10.0000032296
10.0000030848
10.0000031534
10.0000031375
10.0000028989
10.0000025887
10.0000024671
10.0000026785
10.0000031882
10.0000038472
10.0000045005
10.0000050515
10.0000054679
10.0000057605
10.0000059556
10.0000060808
10.000006158
10.0000062033
10.0000062277
10.000006239
10.0000062417
10.0000062391
10.0000062329
10.0000062249
10.0000062159
10.0000062075
10.0000062005
10.0000061961
10.0000061951
10.0000061985
10.0000062067
10.0000062202
10.0000062391
10.0000062638
10.0000062942
10.00000633
10.0000063707
10.0000064158
10.0000064644
10.0000065159
10.0000065691
10.0000066233
10.0000066773
10.0000067308
10.000006782
10.0000068313
10.0000068765
10.0000069188
10.0000069553
10.0000069888
10.0000070145
10.0000070382
10.0000070519
10.0000070656
10.0000070665
10.0000070711
10.0000070588
10.0000070558
10.00000703
10.0000070207
10.000006981
10.0000069658
10.0000069117
10.0000068882
10.0000068213
10.0000067852
10.0000067147
10.0000000133
10.0000001677
10.0000003161
10.0000004564
10.0000005952
10.0000007325
10.0000008684
10.0000010026
10.0000011353
10.0000012666
10.0000013969
10.0000015261
10.0000016551
10.0000017831
10.0000019117
10.0000020389
10.0000021677
10.0000022937
10.0000024233
10.0000025469
10.0000026778
10.0000027968
10.000002931
10.0000030409
10.000003183
10.0000032761
10.0000034365
10.000003497
10.0000036977
10.0000036939
10.000003981
10.0000038474
10.0000043154
10.0000039177
10.0000047579
10.0000038267
10.0000054157
10.0000034294
10.0000064764
10.0000024835
10.0000082278
10.0000006528
10.0000110064
9.99999763989
10.0000149512
9.99999357085
10.000019483
9.99998960438
10.0000227656
9.99998814009
10.0000221575
9.99999141016
10.0000165809
9.99999852609
10.0000090505
10.0000045211
10.0000049255
10.0000052343
10.0000046521
10.0000043632
10.0000031898