/*--------------------------------*- C++ -*----------------------------------*\
  =========                 |
  \\      /  F ield         | OpenFOAM: The Open Source CFD Toolbox
   \\    /   O peration     | Website:  https://openfoam.org
    \\  /    A nd           | Version:  7
     \\/     M anipulation  |
\*---------------------------------------------------------------------------*/
FoamFile
{
    version     2.0;
    format      ascii;
    class       volScalarField;
    location    "3300";
    object      p;
}
// * * * * * * * * * * * * * * * * * * * * * * * * * * * * * * * * * * * * * //

dimensions      [0 2 -2 0 0 0 0];

internalField   nonuniform List<scalar> 
8192
(
0.000548058634378
0.000376501858748
0.000290867872136
0.000246729809423
0.000221678402936
0.000206415428972
0.000196524130448
0.000189760499037
0.000184917814288
0.00018131201028
0.000178535581071
0.000176334415783
0.000174543428682
0.000173051460421
0.000171781331939
0.000170678050527
0.000169701570514
0.000168822193293
0.000168017550662
0.000167270569435
0.000166568062533
0.000165899731253
0.000165257443932
0.000164634704674
0.00016402625501
0.000163427770222
0.000162835623595
0.000162246700023
0.00016165824519
0.000161067740461
0.000160472795434
0.000159871052824
0.000159260100826
0.000158637388791
0.000158000142621
0.000157345277221
0.000156669303218
0.000155968226016
0.000155237435182
0.000154471583303
0.000153664453763
0.00015280881877
0.000151896290133
0.000150917168518
0.000149860299552
0.000148712950229
0.000147460723553
0.000146087536017
0.000144575687725
0.000142906060709
0.000141058482528
0.000139012290713
0.000136747123238
0.000134243942689
0.000131486272306
0.000128461586051
0.000125162751851
0.000121589388633
0.000117748968384
0.000113657489406
0.000109339570888
0.000104827881737
0.000100161909284
9.53861841755e-05
9.0548172473e-05
8.56960986649e-05
8.08769511831e-05
7.61348512078e-05
7.15098549486e-05
6.70371710978e-05
6.27467125782e-05
5.86628818125e-05
5.48045037031e-05
5.11848578202e-05
4.78117980195e-05
4.46879761498e-05
4.18111942947e-05
3.91749022485e-05
3.67688340555e-05
3.45797535255e-05
3.25922575797e-05
3.07895786462e-05
2.91543295404e-05
2.76691481982e-05
2.63172160904e-05
2.5082642803e-05
2.3950722637e-05
2.29080797207e-05
2.1942722093e-05
2.10440272044e-05
2.02026788335e-05
1.94105732748e-05
1.86607082659e-05
1.79470654593e-05
1.7264493389e-05
1.66085961343e-05
1.59756302054e-05
1.53624114575e-05
1.47662321551e-05
1.41847883112e-05
1.36161163675e-05
1.30585386838e-05
1.25106165892e-05
1.19711103231e-05
1.14389446482e-05
1.09131795463e-05
1.03929849378e-05
9.87761899262e-06
9.36640917327e-06
8.85873575741e-06
8.35401720365e-06
7.851697336e-06
7.3512340136e-06
6.85208964557e-06
6.35372379068e-06
5.85558905349e-06
5.35713188801e-06
4.85780175384e-06
4.35707403348e-06
3.85449677284e-06
3.34977862474e-06
2.8429505013e-06
2.33466225888e-06
1.82673723479e-06
1.32324511165e-06
8.32697106673e-07
3.73440370365e-07
3.69347370498e-08
0.000399152028699
0.000335630985832
0.000285926788932
0.000253255608647
0.000231312572601
0.000216109236128
0.000205268134482
0.000197325152363
0.00019135547517
0.000186760924293
0.000183145490681
0.000180240952068
0.000177861595197
0.000175876138227
0.000174189978462
0.000172733741262
0.000171455742313
0.000170316925386
0.000169287395645
0.000168344000906
0.000167468613876
0.000166646891763
0.000165867366342
0.000165120766483
0.000164399506388
0.000163697293528
0.000163008823777
0.00016232954065
0.000161655441668
0.000160982919512
0.00016030862795
0.000159629366057
0.000158941975065
0.000158243242787
0.000157529811869
0.000156798088969
0.000156044152155
0.000155263654663
0.000154451723375
0.000153602851381
0.000152710784511
0.000151768403319
0.000150767603158
0.000149699177569
0.000148552712523
0.000147316502921
0.000145977506349
0.000144521354044
0.000142932442841
0.000141194135921
0.000139289100862
0.000137199811631
0.000134909232466
0.000132401687116
0.000129663893372
0.000126686113939
0.000123463340849
0.000119996400119
0.000116292840534
0.000112367466439
0.000108242393699
0.00010394655785
9.95146782803e-05
9.49857723159e-05
9.04013915788e-05
8.58037964945e-05
8.12342769472e-05
7.67317687187e-05
7.23318211873e-05
6.80659026937e-05
6.39609809957e-05
6.00392990337e-05
5.63182795689e-05
5.28105215439e-05
4.95238798409e-05
4.64616416242e-05
4.3622818073e-05
4.10025631431e-05
3.85927123745e-05
3.63824150993e-05
3.43588168166e-05
3.25077425268e-05
3.08143342697e-05
2.92636075028e-05
2.78409045949e-05
2.65322386034e-05
2.53245314403e-05
2.42057589721e-05
2.31650190664e-05
2.21925402498e-05
2.12796470473e-05
2.04186964483e-05
1.96029967354e-05
1.88267177736e-05
1.80847989519e-05
1.73728594538e-05
1.66871134693e-05
1.60242922194e-05
1.53815733441e-05
1.47565180351e-05
1.41470154721e-05
1.35512342865e-05
1.29675802447e-05
1.23946596672e-05
1.18312477254e-05
1.12762611448e-05
1.0728734544e-05
1.0187800046e-05
9.6526695421e-06
9.12261940092e-06
8.59697719963e-06
8.07511049323e-06
7.55641749417e-06
7.04032005608e-06
6.52625937813e-06
6.01369559863e-06
5.50211286291e-06
4.99103280345e-06
4.48004077016e-06
3.96883207015e-06
3.4572894625e-06
2.94561035974e-06
2.43451349113e-06
1.9255751696e-06
1.4217806144e-06
9.28467358044e-07
4.54571147335e-07
7.26778449563e-08
0.000316223090209
0.000293545244328
0.000267538150593
0.000246283986897
0.000230146846797
0.000217818982655
0.000208281813735
0.000200808268776
0.000194876663569
0.000190107979957
0.000186224007911
0.000183018734261
0.000180338324011
0.0001780669257
0.000176116532107
0.00017441969861
0.000172924284883
0.000171589633501
0.00017038377222
0.000169281348946
0.000168262093988
0.000167309664484
0.000166410767716
0.000165554489661
0.000164731775518
0.00016393502375
0.000163157765196
0.000162394406417
0.000161640021404
0.000160890180028
0.000160140802999
0.000159388037594
0.000158628148439
0.000157857418051
0.000157072053652
0.00015626809751
0.000155441338176
0.000154587220988
0.000153700756276
0.000152776424819
0.00015180808039
0.000150788850749
0.000149711039229
0.000148566031354
0.000147344212563
0.000146034906468
0.000144626345727
0.000143105691929
0.000141459123869
0.000139672017428
0.000137729240979
0.000135615589549
0.000133316374053
0.000130818170606
0.000128109714891
0.00012518290201
0.000122033821925
0.000118663732964
0.000115079853288
0.000111295844038
0.000107331871202
0.000103214175635
9.89741477927e-05
9.46469895176e-05
9.02701224697e-05
8.58815465618e-05
8.15183456314e-05
7.72154785436e-05
7.30048943625e-05
6.89149487851e-05
6.49700571236e-05
6.11905056405e-05
5.75923611396e-05
5.41874493742e-05
5.09834002087e-05
4.79837773833e-05
4.51883143849e-05
4.25932698661e-05
4.01918966637e-05
3.79749992271e-05
3.59315382294e-05
3.40492364347e-05
3.23151429157e-05
3.07161244103e-05
2.92392653331e-05
2.78721717103e-05
2.66031835151e-05
2.54215070891e-05
2.43172816401e-05
2.32815950842e-05
2.2306462667e-05
2.13847805195e-05
2.05102633579e-05
1.9677373981e-05
1.88812496305e-05
1.81176292746e-05
1.73827839963e-05
1.66734522732e-05
1.59867806626e-05
1.53202704445e-05
1.46717299081e-05
1.40392322597e-05
1.34210785059e-05
1.28157650796e-05
1.22219554919e-05
1.16384557547e-05
1.10641929097e-05
1.0498196475e-05
9.93958225935e-06
9.38753847263e-06
8.84131374053e-06
8.30020712723e-06
7.76356000456e-06
7.23075015244e-06
6.70118831459e-06
6.1743181016e-06
5.64962017706e-06
5.12662259692e-06
4.60491962116e-06
4.08420281182e-06
3.56430952439e-06
3.04529666502e-06
2.52755094514e-06
2.01195260124e-06
1.50011502722e-06
9.94674109282e-07
4.99082562267e-07
8.24781603808e-08
0.000271699618269
0.000263294106366
0.000249081893713
0.000235269484576
0.000223821851295
0.000214529142159
0.000206939303135
0.000200684535824
0.000195486957529
0.000191134113343
0.000187460249785
0.000184334243227
0.00018165155294
0.000179328467085
0.000177297753871
0.000175505271957
0.000173907293397
0.00017246838068
0.000171159702252
0.000169957696267
0.00016884301021
0.000167799658391
0.000166814350941
0.000165875957597
0.000164975077268
0.000164103690608
0.000163254877654
0.00016242258646
0.000161601441614
0.000160786583913
0.000159973532865
0.000159158068256
0.000158336126072
0.000157503703689
0.000156656771787
0.000155791190517
0.000154902627722
0.000153986477654
0.000153037778859
0.000152051130636
0.000151020607865
0.000149939675026
0.000148801101053
0.000147596878286
0.000146318150381
0.000144955156589
0.00014349720247
0.000141932670732
0.000140249089292
0.000138433277429
0.000136471593012
0.000134350304178
0.00013205610452
0.000129576781331
0.000126902029086
0.00012402437653
0.000120940166088
0.000117650494541
0.000114161998723
0.000110487358196
0.000106645394974
0.000102660687653
9.85626854953e-05
9.43844004473e-05
9.01608447509e-05
8.59274318874e-05
8.17185547016e-05
7.75664826743e-05
7.35005983311e-05
6.95469296593e-05
6.57278983204e-05
6.20621923224e-05
5.85647014693e-05
5.52464905308e-05
5.2114816827e-05
4.9173219239e-05
4.64217090235e-05
4.38570813548e-05
4.14733441527e-05
3.92622377711e-05
3.72138022277e-05
3.53169437936e-05
3.35599580037e-05
3.19309790907e-05
3.04183402154e-05
2.90108422719e-05
2.76979380951e-05
2.64698446164e-05
2.53175972197e-05
2.42330605826e-05
2.32089083761e-05
2.22385823216e-05
2.13162385812e-05
2.04366876948e-05
1.95953322967e-05
1.87881057344e-05
1.80114134068e-05
1.7262078107e-05
1.65372898538e-05
1.58345605382e-05
1.51516832254e-05
1.44866960017e-05
1.38378499477e-05
1.32035809749e-05
1.25824850456e-05
1.1973296498e-05
1.13748690337e-05
1.07861591394e-05
1.02062115805e-05
9.63414682648e-06
9.069150153e-06
8.51046239958e-06
7.95737227437e-06
7.40921035209e-06
6.86534487294e-06
6.32517975399e-06
5.78815527378e-06
5.2537523084e-06
4.72150123392e-06
4.19099732063e-06
3.66192518822e-06
3.13409642787e-06
2.60750629839e-06
2.08241644837e-06
1.55945755798e-06
1.03964860592e-06
5.2376440364e-07
8.40475781429e-08
0.000244115040734
0.000242119635756
0.000234293865191
0.000225076961011
0.000216774428313
0.000209724044291
0.000203769095245
0.000198704404586
0.000194361680427
0.000190611232351
0.000187351747954
0.000184501924436
0.000181995090175
0.000179775839036
0.000177797805043
0.000176022061552
0.000174415879239
0.000172951713468
0.000171606357482
0.000170360227361
0.000169196757245
0.000168101888661
0.000167063640311
0.000166071746346
0.000165117352407
0.000164192760061
0.000163291211401
0.000162406706759
0.000161533849632
0.000160667713435
0.000159803724464
0.000158937559733
0.000158065056272
0.000157182127424
0.000156284684738
0.000155368563491
0.000154429450086
0.000153462809987
0.000152463815003
0.000151427269253
0.000150347533418
0.000149218447628
0.000148033253996
0.000146784521054
0.000145464073739
0.000144062934769
0.00014257128578
0.000140978460149
0.000139272983196
0.000137442679914
0.0001354748739
0.000133356703305
0.000131075577634
0.00012861979166
0.000125979296712
0.000123146605466
0.000120117774678
0.00011689337648
0.000113479338142
0.000109887511454
0.000106135834184
0.000102247979458
9.82524617851e-05
9.41812770169e-05
9.00682662694e-05
8.59474582962e-05
8.1851642265e-05
7.78113285523e-05
7.38540935993e-05
7.00042349948e-05
6.62826298078e-05
6.2706682578e-05
5.92902953022e-05
5.60438388331e-05
5.29741432653e-05
5.00845477649e-05
4.73750529719e-05
4.48426033319e-05
4.24814982931e-05
4.02839025272e-05
3.82404056331e-05
3.63405772016e-05
3.45734712056e-05
3.29280497663e-05
3.13935132753e-05
2.99595381405e-05
2.86164323741e-05
2.73552238661e-05
2.61676968561e-05
2.50463910037e-05
2.39845749527e-05
2.29762038932e-05
2.20158680744e-05
2.10987373809e-05
2.02205053427e-05
1.93773349002e-05
1.85658072278e-05
1.77828744383e-05
1.70258164277e-05
1.62922019706e-05
1.55798538634e-05
1.48868179318e-05
1.42113355363e-05
1.35518193041e-05
1.29068316984e-05
1.22750661614e-05
1.16553304782e-05
1.10465321457e-05
1.0447665456e-05
9.85780014104e-06
9.27607135888e-06
8.70167094463e-06
8.13383978899e-06
7.57186135943e-06
7.01505634177e-06
6.46277855829e-06
5.91441233801e-06
5.36937178217e-06
4.82710254749e-06
4.28708729532e-06
3.74885651349e-06
3.21200727849e-06
2.67623243886e-06
2.14135780076e-06
1.60735792603e-06
1.07421537196e-06
5.41208221987e-07
8.42969923186e-08
0.00022580122086
0.000226661226553
0.000222586929714
0.000216425693468
0.000210308918206
0.000204858180108
0.000200123797149
0.000196010652504
0.000192411939876
0.000189238983717
0.000186422259682
0.000183906842334
0.000181648209635
0.000179609345947
0.000177758893484
0.000176069971371
0.000174519382593
0.000173087039588
0.000171755515261
0.00017050967101
0.000169336337345
0.000168224034768
0.000167162728204
0.000166143610759
0.000165158913542
0.000164201738678
0.000163265912763
0.000162345858156
0.000161436480009
0.0001605330656
0.000159631193347
0.000158726651844
0.000157815366634
0.000156893331073
0.000155956540866
0.000155000930869
0.000154022312802
0.000153016312789
0.000151978307664
0.000150903359297
0.000149786146362
0.000148620893452
0.000147401297936
0.000146120455916
0.000144770789809
0.000143343982033
0.000141830921721
0.000140221674981
0.000138505493498
0.000136670881615
0.000134705747188
0.000132597665814
0.000130334288608
0.000127903918285
0.000125296263377
0.000122503355026
0.000119520575564
0.000116347708256
0.000112989879335
0.000109458235723
0.000105770194057
0.000101949124596
9.80234132271e-05
9.40249781637e-05
8.99874677716e-05
8.5944454925e-05
8.19279421162e-05
7.79673611308e-05
7.40890305122e-05
7.03159512469e-05
6.66677943138e-05
6.31609359679e-05
5.98084655605e-05
5.66201515805e-05
5.36023980853e-05
5.07582501107e-05
4.80875085703e-05
4.55869932175e-05
4.32509547405e-05
4.10715996612e-05
3.90396678608e-05
3.71449987149e-05
3.53770342804e-05
3.3725228973e-05
3.21793558681e-05
3.07297155683e-05
2.93672624542e-05
2.80836665349e-05
2.68713284137e-05
2.57233624536e-05
2.4633559886e-05
2.35963406409e-05
2.26066999539e-05
2.16601538939e-05
2.07526863436e-05
1.98806990178e-05
1.90409652747e-05
1.82305880965e-05
1.74469622163e-05
1.66877402742e-05
1.59508026888e-05
1.52342309708e-05
1.45362840946e-05
1.38553776372e-05
1.31900653234e-05
1.25390227195e-05
1.19010327676e-05
1.1274972951e-05
1.06598038396e-05
1.00545588559e-05
9.45833506122e-06
8.87028485252e-06
8.28960842149e-06
7.71554691994e-06
7.14737625465e-06
6.58440155002e-06
6.02595234378e-06
5.47137877208e-06
4.92004914209e-06
4.37134960888e-06
3.82468683984e-06
3.27949431988e-06
2.73524048122e-06
2.19142724772e-06
1.6475362935e-06
1.10279890466e-06
5.55538985397e-07
8.48137596996e-08
0.000212950901057
0.000215032553329
0.000213198184877
0.000209150953405
0.000204639872089
0.000200381092522
0.000196563549642
0.000193181368761
0.000190177003827
0.000187489900199
0.000185068954586
0.000182873319287
0.000180870349338
0.000179033432397
0.000177340342126
0.000175772115938
0.00017431231544
0.0001729465347
0.000171662059862
0.000170447618889
0.000169293185114
0.000168189814097
0.000167129502504
0.000166105062993
0.000165110011753
0.000164138466781
0.000163185055584
0.000162244831255
0.00016131319682
0.000160385834362
0.000159458639279
0.00015852766052
0.000157589045034
0.000156638983731
0.000155673659156
0.000154689193859
0.000153681598506
0.000152646718772
0.0001515801801
0.000150477329479
0.000149333173485
0.000148142312062
0.000146898867882
0.00014559641174
0.000144227885509
0.000142785525735
0.000141260793477
0.000139644319491
0.000137925878809
0.000136094415001
0.000134138141576
0.000132044754742
0.000129801795596
0.000127397196961
0.000124820036493
0.000122061490422
0.000119115942209
0.00011598215258
0.000112664349752
0.000109173059508
0.000105525474623
0.00010174518151
9.78611480403e-05
9.39060446078e-05
8.99141768574e-05
8.5919438069e-05
8.19536889375e-05
7.80457861839e-05
7.42211755894e-05
7.05018618906e-05
6.69065528946e-05
6.3450795482e-05
6.01470213479e-05
5.70044983386e-05
5.40292391005e-05
5.12239498107e-05
4.85881027742e-05
4.61181863032e-05
4.38081345902e-05
4.16498906201e-05
3.96340257018e-05
3.7750337087e-05
3.59883642861e-05
3.43377927999e-05
3.27887398276e-05
3.13319342138e-05
2.99588115166e-05
2.86615467598e-05
2.74330449931e-05
2.62669056733e-05
2.51573725964e-05
2.40992774309e-05
2.30879820437e-05
2.21193227616e-05
2.11895583014e-05
2.02953221873e-05
1.94335799009e-05
1.86015906681e-05
1.77968735982e-05
1.70171778006e-05
1.62604560662e-05
1.55248417087e-05
1.48086281748e-05
1.41102510688e-05
1.34282722653e-05
1.27613658224e-05
1.21083054356e-05
1.14679532044e-05
1.0839249507e-05
1.02212038032e-05
9.61288620275e-06
9.01341965888e-06
8.42197265885e-06
7.837752312e-06
7.25999775579e-06
6.68797384521e-06
6.12096514046e-06
5.55827028414e-06
4.99919692453e-06
4.44305733751e-06
3.88916456459e-06
3.33682755397e-06
2.78533964084e-06
2.23394337063e-06
1.68172742409e-06
1.12736113545e-06
5.6853862107e-07
8.63839356269e-08
0.000203516827921
0.000206058032661
0.000205569250305
0.000203003417103
0.000199708155085
0.00019637726237
0.000193275463064
0.000190464622109
0.000187930131154
0.000185636240388
0.000183546460087
0.000181629461049
0.000179859703071
0.000178216505405
0.000176682902294
0.000175244687616
0.000173889712406
0.000172607394746
0.000171388383018
0.000170224322133
0.000169107686159
0.000168031652885
0.000166990004793
0.000165977046874
0.000164987535575
0.000164016615487
0.000163059761725
0.000162112726746
0.000161171492209
0.000160232220717
0.000159291210498
0.000158344853691
0.00015738959595
0.000156421895905
0.000155438184744
0.000154434825231
0.000153408069344
0.000152354013768
0.000151268552298
0.000150147324267
0.000148985658
0.000147778508404
0.00014652038791
0.000145205290442
0.000143826608759
0.000142377046962
0.000140848532167
0.000139232132991
0.000137517997823
0.00013569533331
0.000133752452681
0.000131676933573
0.000129455932681
0.000127076705557
0.000124527367878
0.000121797905385
0.000118881393025
0.000115775326193
0.000112482907652
0.000109014081119
0.000105386065126
0.000101623142177
9.7755546392e-05
9.38175070965e-05
8.98447974414e-05
8.58723332236e-05
8.19323674798e-05
7.80535530435e-05
7.426071714e-05
7.05750585324e-05
6.70144856601e-05
6.35938685934e-05
6.03251196372e-05
5.72171146657e-05
5.42755326675e-05
5.15027279804e-05
4.88977501948e-05
4.64565849679e-05
4.41726192672e-05
4.20372676776e-05
4.00406595262e-05
3.81722881419e-05
3.64215526447e-05
3.47781609815e-05
3.32323952528e-05
3.17752603058e-05
3.03985441983e-05
2.90948185386e-05
2.78574017671e-05
2.6680302477e-05
2.55581543058e-05
2.4486149669e-05
2.34599764657e-05
2.24757598976e-05
2.15300102095e-05
2.06195764677e-05
1.97416060285e-05
1.88935092113e-05
1.80729285663e-05
1.72777121775e-05
1.65058904304e-05
1.57556557704e-05
1.5025344993e-05
1.43134237018e-05
1.36184725825e-05
1.29391752246e-05
1.22743072218e-05
1.16227263525e-05
1.09833636319e-05
1.03552150848e-05
9.7373340704e-06
9.12882404066e-06
8.52883159442e-06
7.93653973212e-06
7.35116120303e-06
6.77193187738e-06
6.1981040589e-06
5.62893966464e-06
5.0637030844e-06
4.50165326221e-06
3.94203370586e-06
3.38405710182e-06
2.82687633177e-06
2.26952308086e-06
1.71077519504e-06
1.14888874768e-06
5.8114091413e-07
8.94611093491e-08
0.000196331207417
0.0001989793749
0.000199298208684
0.000197774791132
0.000195411175143
0.000192821902973
0.000190299075114
0.000187949601768
0.000185793957571
0.000183818940046
0.000182001673832
0.000180319142821
0.000178751260948
0.00017728134546
0.000175895698892
0.000174582993714
0.00017333370883
0.000172139683785
0.00017099378832
0.000169889684462
0.000168821656552
0.000167784488671
0.000166773374194
0.000165783846674
0.000164811724799
0.00016385306658
0.000162904129664
0.000161961335618
0.000161021238926
0.000160080493642
0.000159135821999
0.000158183986367
0.000157221760256
0.00015624589851
0.000155253106652
0.000154240008787
0.000153203113403
0.000152138776275
0.000151043159584
0.000149912186185
0.000148741487852
0.000147526346179
0.000146261624796
0.000144941691651
0.000143560330599
0.000142110642521
0.000140584938238
0.000138974628988
0.00013727012596
0.000135460768949
0.000133534815824
0.000131479538236
0.000129281481877
0.000126926955564
0.000124402804498
0.000121697491641
0.000118802456481
0.000115713650182
0.000112433073366
0.000108970074847
0.000105342109883
0.000101574628247
9.76998412923e-05
9.37543896893e-05
8.97763542146e-05
8.58023575713e-05
8.18655062284e-05
7.79945111706e-05
7.42137208752e-05
7.05436232546e-05
6.7001426099e-05
6.3601440748e-05
6.03551900205e-05
5.72712772966e-05
5.4355126892e-05
5.16087511053e-05
4.90307010222e-05
4.6616301138e-05
4.43581708487e-05
4.22469444854e-05
4.02720554721e-05
3.84224584807e-05
3.66872076419e-05
3.50558611755e-05
3.35187233929e-05
3.2066956803e-05
3.06926028146e-05
2.93885454003e-05
2.81484440525e-05
2.69666539796e-05
2.58381446698e-05
2.47584229546e-05
2.37234635041e-05
2.27296476771e-05
2.17737106059e-05
2.08526958177e-05
1.99639165183e-05
1.9104922595e-05
1.8273472485e-05
1.74675091163e-05
1.6685139263e-05
1.59246157282e-05
1.51843218867e-05
1.44627581696e-05
1.37585301649e-05
1.30703380381e-05
1.23969670437e-05
1.17372789119e-05
1.10902039446e-05
1.04547336541e-05
9.82991381728e-06
9.21483780641e-06
8.60864009025e-06
8.01048977693e-06
7.41958409228e-06
6.83514164622e-06
6.25639531959e-06
5.68258447536e-06
5.11294598131e-06
4.54670298098e-06
3.98304923272e-06
3.42112443028e-06
2.85997116618e-06
2.29845544771e-06
1.73511975511e-06
1.16792843637e-06
5.93889621269e-07
9.43454140494e-08
0.000190695687235
0.000193292318463
0.000194092156896
0.000193303068086
0.000191655640222
0.000189666371818
0.000187622899775
0.000185657092074
0.000183815414605
0.000182103985028
0.000180512634415
0.000179026340406
0.0001776300787
0.000176310541302
0.00017505648401
0.000173858543526
0.00017270890002
0.000171600938973
0.000170528965094
0.000169487977977
0.000168473502863
0.000167481465267
0.00016650809849
0.000165549874865
0.00016460345366
0.000163665640477
0.000162733354432
0.000161803600533
0.000160873447043
0.000159940001178
0.000159000385559
0.000158051719317
0.0001570910968
0.000156115565474
0.000155122102553
0.000154107589787
0.000153068785769
0.000152002294948
0.000150904532402
0.00014977168319
0.000148599654858
0.000147384021399
0.000146119956699
0.000144802155346
0.000143424738735
0.000141981145048
0.000140464003233
0.000138864994418
0.000137174710078
0.000135382525916
0.000133476524578
0.000131443518601
0.000129269244354
0.000126938810952
0.000124437483876
0.000121751849872
0.000118871344516
0.000115790037679
0.00011250848376
0.00010903536051
0.000105388533136
0.000101595102841
9.76900436163e-05
9.37133719908e-05
8.97064121812e-05
8.57082066178e-05
8.17531245516e-05
7.78700937697e-05
7.40830128308e-05
7.04116665617e-05
6.68726074686e-05
6.34796843324e-05
6.02441632683e-05
5.71745139348e-05
5.427601001e-05
5.15503511848e-05
4.89955212318e-05
4.66060193335e-05
4.43734649863e-05
4.22874505803e-05
4.03364583498e-05
3.85086789568e-05
3.67926356114e-05
3.51775892364e-05
3.36537504613e-05
3.22123471629e-05
3.08455982604e-05
2.95466354927e-05
2.83094026729e-05
2.71285508889e-05
2.59993397925e-05
2.49175496467e-05
2.38794054796e-05
2.28815129554e-05
2.19208047306e-05
2.09944958181e-05
2.0100046473e-05
1.92351312806e-05
1.83976132957e-05
1.758552229e-05
1.67970363186e-05
1.60304659805e-05
1.52842408508e-05
1.45568976769e-05
1.38470699942e-05
1.31534788921e-05
1.24749246957e-05
1.18102793806e-05
1.11584795507e-05
1.05185198461e-05
9.88944664626e-06
9.27035195587e-06
8.66036735093e-06
8.05865786124e-06
7.46441563846e-06
6.87685321397e-06
6.29519605243e-06
5.71867392418e-06
5.14651025977e-06
4.57790796418e-06
4.01202886197e-06
3.44796153051e-06
2.88466804783e-06
2.32089362354e-06
1.75501562633e-06
1.18480792949e-06
6.07121149303e-07
1.01238491783e-07
0.000186174248802
0.000188653053391
0.000189733910312
0.000189462104376
0.000188365084602
0.000186863150359
0.000185221442305
0.000183581275904
0.000182006275387
0.000180517881908
0.000179117175313
0.000177796725276
0.000176546466962
0.000175356344979
0.000174217329744
0.000173121668985
0.000172062813209
0.000171035227228
0.000170034183763
0.000169055577899
0.000168095774153
0.000167151486117
0.000166219684088
0.000165297525037
0.000164382299574
0.000163471391448
0.000162562246033
0.000161652345679
0.000160739189499
0.000159820273838
0.000158893072828
0.000157955024316
0.000157003513385
0.000156035855235
0.000155049276796
0.000154040896464
0.000153007701286
0.000151946520761
0.000150853996234
0.000149726544569
0.000148560314464
0.000147351133308
0.000146094442014
0.000144785214771
0.000143417860304
0.000141986101314
0.000140482829784
0.000138899938591
0.000137228135706
0.000135456757683
0.000133573615941
0.000131564932793
0.000129415451866
0.000127108830811
0.00012462842769
0.000121958558264
0.000119086222692
0.000116003192759
0.000112708244774
0.000109209228453
0.000105524546471
0.00010168346374
9.77246259556e-05
9.36925777149e-05
8.96329917561e-05
8.55881151415e-05
8.15939454791e-05
7.76796720817e-05
7.38686534681e-05
7.01798948806e-05
6.66292966674e-05
6.32303329824e-05
5.99941622631e-05
5.69292904183e-05
5.40409775597e-05
5.13306602644e-05
4.8795683918e-05
4.64295349675e-05
4.42225668364e-05
4.21630367995e-05
4.02382007644e-05
3.84352548506e-05
3.67420129448e-05
3.51473068988e-05
3.36411573432e-05
3.22147851096e-05
3.08605289234e-05
2.95717190748e-05
2.83425393926e-05
2.71678957039e-05
2.60432992836e-05
2.49647678882e-05
2.39287438482e-05
2.29320272445e-05
2.19717217798e-05
2.10451909934e-05
2.0150022768e-05
1.92840003982e-05
1.84450788397e-05
1.7631365025e-05
1.68411013887e-05
1.60726519135e-05
1.53244901779e-05
1.45951889786e-05
1.38834112096e-05
1.31879017272e-05
1.25074799998e-05
1.18410333589e-05
1.1187510717e-05
1.05459166149e-05
9.91530549143e-06
9.29477605647e-06
8.68346565297e-06
8.08054446298e-06
7.48520938238e-06
6.89667730003e-06
6.31417739074e-06
5.73694177272e-06
5.16419345369e-06
4.59512970505e-06
4.02889767235e-06
3.46455676792e-06
2.90101890025e-06
2.33695296307e-06
1.77063624478e-06
1.19973848695e-06
6.21044112853e-07
1.1026488312e-07
0.000182483515352
0.000184821632817
0.000186059992999
0.000186152144498
0.000185477533471
0.000184371376696
0.000183068059304
0.000181707597968
0.000180363214284
0.000179067524158
0.000177830955518
0.000176652958893
0.000175528237237
0.000174449958895
0.000173411279609
0.000172405970012
0.000171428596576
0.000170474496702
0.00016953967202
0.000168620660636
0.000167714415792
0.000166818201391
0.000165929506644
0.000165045978416
0.000164165368462
0.000163285492538
0.000162404198557
0.00016151934286
0.000160628769752
0.000159730293486
0.000158821681281
0.000157900640886
0.000156964806768
0.000156011725856
0.000155038842238
0.000154043480169
0.000153022824685
0.000151973898962
0.000150893537329
0.000149778352542
0.000148624695437
0.000147428604558
0.000146185742575
0.000144891315534
0.000143539970094
0.000142125663401
0.000140641500379
0.000139079535309
0.000137430539719
0.000135683749614
0.000133826624116
0.000131844676976
0.000129721480334
0.000127438977436
0.000124978256814
0.000122320907249
0.000119450976103
0.000116357416516
0.000113036782183
0.000109495831252
0.000105753566053
0.000101841963107
9.78044288457e-05
9.36914726782e-05
8.95544842201e-05
8.54398197253e-05
8.1385421644e-05
7.74206431731e-05
7.35680757915e-05
6.98457860503e-05
6.62689963403e-05
6.28509014085e-05
5.96027322867e-05
5.65332467732e-05
5.36478726701e-05
5.09478552702e-05
4.84298181643e-05
4.60860038547e-05
4.3905174625e-05
4.18739045643e-05
3.99779099098e-05
3.82031436634e-05
3.65365307055e-05
3.49663514488e-05
3.34823545444e-05
3.2075696656e-05
3.07387926241e-05
2.94651339519e-05
2.82491097747e-05
2.70858471062e-05
2.59710762024e-05
2.49010209567e-05
2.38723114644e-05
2.28819150372e-05
2.19270819741e-05
2.10053028851e-05
2.01142749131e-05
1.9251874779e-05
1.84161370257e-05
1.76052362406e-05
1.68174723173e-05
1.60512580602e-05
1.53051085933e-05
1.45776321745e-05
1.38675220981e-05
1.31735494515e-05
1.24945565296e-05
1.18294507594e-05
1.11771990014e-05
1.05368221207e-05
9.90738971811e-06
9.28801491921e-06
8.67784909462e-06
8.0760763635e-06
7.48190766618e-06
6.89457409852e-06
6.31331902453e-06
5.73738820073e-06
5.16601665943e-06
4.59841030348e-06
4.03371887198e-06
3.47099495427e-06
2.90913095484e-06
2.34676280505e-06
1.78212762232e-06
1.21286649338e-06
6.35777565567e-07
1.21480934701e-07
0.000179432264962
0.000181626755431
0.000182945670188
0.000183293075514
0.000182942074201
0.000182156766618
0.000181138682721
0.000180019839647
0.000178877161352
0.000177750622367
0.000176657926726
0.000175604440779
0.00017458926628
0.000173608698868
0.000172658076516
0.000171732695244
0.000170828209978
0.000169940764957
0.000169066991288
0.000168203946411
0.000167349034461
0.000166499926621
0.000165654489808
0.000164810726415
0.000163966725063
0.000163120621106
0.000162270565089
0.000161414699517
0.000160551138167
0.000159677947326
0.000158793130604
0.000157894616524
0.000156980245832
0.000156047758625
0.0001550947807
0.000154118808488
0.000153117191862
0.000152087113939
0.000151025566779
0.000149929321486
0.000148794890705
0.000147618480784
0.000146395929919
0.000145122627419
0.000143793407852
0.000142402412501
0.000140942909789
0.0001394070671
0.000137785670642
0.000136067800613
0.000134240489909
0.000132288430032
0.000130193838355
0.000127936657396
0.000125495292225
0.000122848063917
0.000119975435907
0.0001168628888
0.000113504165289
0.000109904525262
0.000106083530859
0.000102076449124
9.79327844882e-05
9.37108666891e-05
8.94695648829e-05
8.52604270128e-05
8.11235855573e-05
7.70882667983e-05
7.31759050224e-05
6.9403391771e-05
6.57852359841e-05
6.23344736834e-05
5.9062635485e-05
5.5979008435e-05
5.30894269581e-05
5.03950416453e-05
4.78916443925e-05
4.55699310642e-05
4.34166566074e-05
4.14162807872e-05
3.95526086727e-05
3.78100713752e-05
3.61745168969e-05
3.46335569257e-05
3.31765971573e-05
3.17946851838e-05
3.04802794413e-05
2.92270046708e-05
2.80294282415e-05
2.68828710252e-05
2.57832548317e-05
2.47269828117e-05
2.37108472575e-05
2.27319590866e-05
2.17876939874e-05
2.08756511189e-05
1.99936211772e-05
1.91395614003e-05
1.83115757165e-05
1.75078987046e-05
1.67268824001e-05