/*--------------------------------*- C++ -*----------------------------------*\
  =========                 |
  \\      /  F ield         | OpenFOAM: The Open Source CFD Toolbox
   \\    /   O peration     | Website:  https://openfoam.org
    \\  /    A nd           | Version:  7
     \\/     M anipulation  |
\*---------------------------------------------------------------------------*/
FoamFile
{
    version     2.0;
    format      ascii;
    class       volScalarField;
    location    "2640";
    object      Ci;
}
// * * * * * * * * * * * * * * * * * * * * * * * * * * * * * * * * * * * * * //

dimensions      [0 -3 0 0 1 0 0];

internalField   nonuniform List<scalar> 
8192
(
9.99999999188
10.0000000285
10.000000085
10.0000001638
10.0000002727
10.0000004068
10.0000005561
10.0000007155
10.0000008824
10.0000010545
10.0000012306
10.0000014093
10.0000015899
10.0000017707
10.0000019512
10.0000021294
10.0000023046
10.0000024745
10.0000026382
10.0000027928
10.0000029376
10.0000030705
10.0000031913
10.0000032979
10.0000033901
10.0000034657
10.0000035244
10.0000035638
10.0000035839
10.0000035819
10.0000035581
10.0000035095
10.0000034366
10.0000033367
10.0000032105
10.0000030558
10.0000028756
10.0000026695
10.0000024397
10.0000021841
10.000001905
10.0000016004
10.0000012738
10.0000009242
10.0000005566
10.000000171
9.99999977391
9.99999936624
9.99999895565
9.99999854367
9.99999813879
9.99999774284
9.99999736515
9.99999700793
9.99999668163
9.99999638922
9.99999614249
9.99999594527
9.99999581048
9.9999957422
9.99999575349
9.99999584731
9.99999603488
9.99999631565
9.99999669622
9.99999717005
9.99999773723
9.99999838483
9.99999910744
9.99999988824
10.0000007195
10.0000015839
10.000002474
10.0000033739
10.0000042777
10.0000051712
10.0000060504
10.0000069033
10.0000077276
10.0000085142
10.0000092631
10.0000099678
10.0000106304
10.0000112469
10.0000118209
10.0000123501
10.0000128392
10.0000132867
10.0000136979
10.0000140717
10.0000144132
10.0000147207
10.0000149972
10.0000152421
10.0000154607
10.0000156531
10.0000158246
10.0000159745
10.0000161078
10.0000162235
10.0000163258
10.0000164136
10.0000164905
10.000016555
10.0000166106
10.0000166555
10.0000166928
10.0000167204
10.0000167411
10.0000167527
10.0000167577
10.0000167538
10.000016743
10.0000167229
10.0000166954
10.0000166574
10.0000166107
10.0000165518
10.0000164818
10.0000163966
10.0000162971
10.0000161791
10.0000160439
10.0000158897
10.0000157217
10.0000155458
10.0000153785
10.0000152578
10.0000000014
10.000000049
10.0000001035
10.0000001728
10.0000002617
10.0000003701
10.0000004957
10.0000006358
10.0000007877
10.0000009488
10.0000011172
10.0000012907
10.0000014682
10.0000016477
10.0000018281
10.0000020076
10.000002185
10.0000023583
10.0000025262
10.0000026853
10.000002835
10.0000029739
10.0000031018
10.0000032169
10.0000033189
10.0000034058
10.0000034772
10.0000035311
10.0000035671
10.000003583
10.0000035787
10.0000035517
10.0000035023
10.000003428
10.0000033291
10.0000032036
10.0000030558
10.0000028873
10.000002698
10.0000024853
10.0000022502
10.0000019909
10.0000017093
10.0000014048
10.0000010807
10.0000007372
10.0000003794
10.0000000084
9.99999963032
9.99999924725
9.99999886612
9.99999848955
9.99999812528
9.99999777654
9.99999745199
9.99999715561
9.99999689709
9.99999668111
9.99999651809
9.99999641294
9.99999637601
9.99999641135
9.99999652772
9.99999672652
9.99999701285
9.99999738355
9.99999783868
9.99999837008
9.99999897339
9.9999996371
10.0000003545
10.000001113
10.0000019055
10.0000027195
10.0000035483
10.0000043804
10.0000052097
10.000006026
10.0000068248
10.0000075976
10.0000083418
10.0000090511
10.0000097254
10.0000103602
10.0000109572
10.0000115138
10.0000120328
10.0000125129
10.0000129577
10.0000133666
10.0000137433
10.0000140861
10.0000143938
10.0000146685
10.0000149157
10.0000151362
10.0000153343
10.0000155104
10.0000156682
10.0000158075
10.0000159319
10.0000160408
10.0000161373
10.0000162205
10.0000162931
10.0000163542
10.0000164062
10.0000164477
10.0000164811
10.0000165048
10.0000165207
10.0000165271
10.0000165258
10.0000165148
10.0000164956
10.000016466
10.000016427
10.0000163761
10.0000163137
10.0000162368
10.0000161454
10.0000160361
10.0000159096
10.0000157636
10.0000156002
10.0000154267
10.0000152572
10.0000151171
10.0000000038
10.0000000598
10.0000001153
10.0000001755
10.0000002476
10.0000003327
10.0000004313
10.000000543
10.0000006673
10.0000008025
10.0000009475
10.0000011005
10.0000012603
10.0000014248
10.000001593
10.000001763
10.0000019339
10.0000021036
10.0000022714
10.0000024351
10.000002594
10.0000027461
10.0000028912
10.0000030273
10.0000031542
10.0000032698
10.0000033741
10.0000034648
10.000003542
10.0000036033
10.000003649
10.0000036765
10.0000036861
10.0000036752
10.0000036444
10.0000035908
10.0000035158
10.0000034175
10.0000032971
10.000003152
10.000002984
10.0000027908
10.0000025752
10.0000023355
10.0000020756
10.0000017949
10.0000014984
10.0000011862
10.0000008644
10.0000005335
10.0000002006
9.99999986631
9.99999953828
9.99999921752
9.99999891217
9.99999862357
9.99999836064
9.9999981251
9.99999792661
9.99999776722
9.99999765695
9.99999759765
9.99999759881
9.99999766097
9.99999779162
9.99999798855
9.99999825597
9.99999858833
9.99999898653
9.99999944243
9.99999995472
10.0000005138
10.0000011172
10.0000017547
10.0000024229
10.0000031112
10.0000038158
10.0000045264
10.0000052391
10.0000059443
10.0000066393
10.0000073157
10.0000079723
10.0000086026
10.0000092068
10.00000978
10.0000103238
10.0000108348
10.0000113157
10.0000117641
10.0000121834
10.0000125717
10.0000129319
10.0000132629
10.0000135687
10.0000138483
10.0000141057
10.0000143398
10.0000145544
10.0000147484
10.0000149252
10.0000150837
10.0000152273
10.0000153545
10.0000154685
10.0000155678
10.0000156555
10.0000157297
10.0000157933
10.0000158445
10.000015886
10.0000159156
10.0000159359
10.0000159446
10.000015944
10.0000159316
10.0000159095
10.0000158747
10.0000158288
10.0000157685
10.0000156948
10.0000156042
10.0000154981
10.0000153736
10.0000152299
10.0000150723
10.0000149086
10.0000147559
10.0000000039
10.0000000676
10.000000124
10.000000183
10.0000002497
10.0000003253
10.0000004101
10.0000005045
10.0000006088
10.0000007229
10.0000008464
10.0000009786
10.0000011185
10.000001265
10.0000014171
10.0000015734
10.0000017328
10.0000018939
10.0000020557
10.0000022167
10.0000023761
10.0000025324
10.0000026848
10.0000028319
10.0000029732
10.000003107
10.0000032328
10.0000033491
10.0000034551
10.0000035494
10.0000036313
10.0000036991
10.0000037522
10.000003789
10.0000038088
10.0000038099
10.000003792
10.0000037536
10.0000036946
10.0000036137
10.0000035112
10.0000033863
10.00000324
10.000003072
10.0000028843
10.0000026774
10.0000024541
10.0000022157
10.0000019656
10.0000017057
10.0000014398
10.00000117
10.0000009004
10.0000006332
10.0000003728
10.0000001217
9.99999988481
9.99999966499
9.9999994678
9.99999929663
9.99999915744
9.99999905379
9.99999899142
9.99999897315
9.99999900339
9.99999908304
9.99999921418
9.99999939535
9.99999962651
9.99999990452
10.0000002283
10.0000005938
10.0000009995
10.0000014408
10.0000019156
10.0000024186
10.0000029468
10.0000034943
10.0000040576
10.0000046303
10.000005209
10.0000057875
10.0000063628
10.0000069295
10.0000074853
10.0000080259
10.0000085497
10.0000090536
10.0000095371
10.0000099978
10.000010436
10.0000108502
10.0000112414
10.0000116086
10.0000119532
10.0000122748
10.000012575
10.0000128536
10.0000131122
10.0000133507
10.0000135707
10.0000137721
10.0000139565
10.0000141237
10.0000142753
10.000014411
10.0000145323
10.0000146389
10.0000147321
10.0000148116
10.0000148786
10.0000149327
10.0000149749
10.0000150047
10.0000150231
10.0000150293
10.0000150241
10.0000150065
10.000014977
10.0000149341
10.0000148779
10.0000148066
10.0000147198
10.0000146169
10.000014497
10.0000143662
10.0000142206
10.0000140922
10.0000000088
10.0000000799
10.0000001434
10.0000002041
10.0000002693
10.0000003406
10.0000004187
10.0000005039
10.0000005965
10.0000006968
10.0000008051
10.000000921
10.0000010442
10.000001174
10.0000013099
10.0000014509
10.0000015961
10.0000017445
10.0000018953
10.0000020471
10.0000021993
10.0000023506
10.0000025002
10.000002647
10.0000027901
10.0000029284
10.000003061
10.0000031867
10.0000033048
10.0000034139
10.0000035132
10.0000036015
10.0000036777
10.0000037406
10.0000037894
10.0000038228
10.0000038401
10.00000384
10.0000038222
10.0000037856
10.0000037303
10.0000036556
10.0000035621
10.0000034495
10.0000033193
10.0000031719
10.0000030093
10.0000028326
10.0000026443
10.0000024459
10.0000022403
10.000002029
10.0000018153
10.0000016008
10.000001389
10.0000011817
10.000000983
10.0000007953
10.0000006233
10.0000004699
10.0000003401
10.0000002371
10.0000001656
10.000000128
10.0000001276
10.0000001648
10.0000002409
10.000000354
10.0000005036
10.0000006869
10.000000903
10.0000011491
10.0000014244
10.0000017264
10.0000020544
10.0000024057
10.0000027793
10.0000031723
10.0000035829
10.000004008
10.0000044455
10.0000048919
10.000005345
10.0000058013
10.0000062585
10.0000067132
10.0000071635
10.0000076064
10.0000080402
10.0000084624
10.000008872
10.0000092669
10.0000096466
10.0000100097
10.000010356
10.0000106845
10.0000109956
10.0000112885
10.0000115639
10.0000118212
10.0000120613
10.0000122838
10.0000124896
10.0000126786
10.0000128516
10.0000130085
10.0000131503
10.0000132768
10.000013389
10.0000134869
10.0000135713
10.000013642
10.0000137001
10.0000137452
10.0000137782
10.0000137989
10.0000138078
10.0000138046
10.0000137897
10.0000137624
10.0000137226
10.0000136694
10.0000136019
10.0000135208
10.0000134222
10.0000133214
10.0000131937
10.0000131188
10.0000000093
10.0000000868
10.0000001538
10.0000002193
10.0000002881
10.0000003608
10.0000004381
10.0000005203
10.0000006078
10.0000007009
10.0000007999
10.0000009051
10.0000010164
10.0000011334
10.0000012559
10.0000013832
10.0000015148
10.0000016499
10.0000017878
10.0000019277
10.0000020687
10.0000022099
10.0000023507
10.0000024899
10.0000026268
10.0000027605
10.00000289
10.0000030144
10.0000031326
10.0000032441
10.0000033473
10.0000034418
10.000003526
10.0000035997
10.000003661
10.00000371
10.0000037446
10.0000037652
10.0000037699
10.000003759
10.0000037313
10.000003687
10.0000036257
10.0000035477
10.0000034535
10.0000033436
10.0000032193
10.0000030815
10.0000029322
10.0000027725
10.0000026048
10.0000024304
10.0000022519
10.0000020709
10.0000018902
10.0000017121
10.0000015398
10.0000013764
10.0000012259
10.0000010921
10.0000009793
10.0000008915
10.0000008324
10.0000008051
10.0000008115
10.0000008521
10.0000009262
10.0000010317
10.0000011661
10.0000013261
10.0000015094
10.000001713
10.0000019353
10.0000021742
10.0000024287
10.0000026971
10.0000029789
10.0000032725
10.0000035774
10.000003892
10.000004216
10.0000045478
10.0000048869
10.0000052315
10.0000055809
10.000005933
10.0000062869
10.0000066404
10.0000069923
10.0000073408
10.0000076844
10.0000080215
10.0000083509
10.0000086711
10.0000089812
10.0000092798
10.0000095665
10.0000098402
10.0000101006
10.000010347
10.0000105794
10.0000107972
10.0000110007
10.0000111893
10.0000113637
10.0000115234
10.000011669
10.0000118004
10.0000119182
10.0000120223
10.0000121134
10.0000121915
10.0000122572
10.0000123105
10.0000123521
10.000012382
10.0000124007
10.0000124081
10.0000124046
10.00001239
10.0000123641
10.000012327
10.0000122766
10.0000122168
10.0000121374
10.000012066
10.0000119505
10.0000119277
10.0000000126
10.0000000951
10.000000169
10.0000002379
10.0000003088
10.0000003828
10.0000004603
10.0000005414
10.0000006266
10.0000007159
10.0000008095
10.0000009078
10.0000010109
10.0000011188
10.0000012311
10.0000013476
10.0000014678
10.0000015911
10.0000017171
10.000001845
10.0000019742
10.000002104
10.0000022335
10.0000023623
10.0000024893
10.000002614
10.000002735
10.0000028525
10.0000029642
10.0000030712
10.0000031702
10.0000032634
10.0000033461
10.000003422
10.000003485
10.0000035401
10.0000035801
10.0000036109
10.0000036251
10.0000036283
10.0000036144
10.0000035877
10.0000035442
10.0000034865
10.0000034131
10.0000033255
10.0000032238
10.0000031093
10.0000029829
10.0000028462
10.0000027006
10.0000025476
10.0000023892
10.0000022271
10.0000020637
10.0000019013
10.000001743
10.0000015923
10.000001453
10.0000013296
10.0000012266
10.0000011486
10.0000010995
10.0000010827
10.0000011001
10.000001152
10.0000012369
10.0000013521
10.0000014942
10.0000016593
10.0000018438
10.0000020444
10.0000022585
10.0000024835
10.0000027175
10.0000029588
10.0000032059
10.0000034574
10.0000037126
10.0000039706
10.0000042311
10.0000044938
10.0000047585
10.000005025
10.0000052934
10.0000055631
10.000005834
10.0000061053
10.0000063766
10.0000066471
10.0000069158
10.000007182
10.0000074445
10.0000077025
10.0000079549
10.0000082007
10.0000084391
10.0000086693
10.0000088904
10.0000091017
10.0000093027
10.000009493
10.000009672
10.0000098396
10.0000099954
10.0000101395
10.0000102716
10.0000103919
10.0000105004
10.0000105973
10.0000106827
10.0000107569
10.0000108201
10.0000108724
10.0000109144
10.0000109461
10.0000109678
10.0000109799
10.0000109823
10.0000109754
10.0000109585
10.000010933
10.0000108946
10.0000108519
10.0000107864
10.0000107405
10.0000106337
10.0000106495
10.0000000108
10.0000000972
10.0000001733
10.0000002469
10.0000003223
10.0000003998
10.0000004797
10.0000005621
10.0000006474
10.0000007357
10.000000827
10.0000009215
10.0000010197
10.0000011216
10.0000012269
10.0000013356
10.0000014474
10.0000015617
10.0000016781
10.0000017962
10.0000019153
10.000002035
10.0000021543
10.0000022733
10.0000023902
10.0000025059
10.0000026174
10.0000027274
10.0000028303
10.0000029321
10.0000030232
10.0000031142
10.0000031901
10.0000032677
10.0000033251
10.0000033862
10.0000034225
10.0000034632
10.0000034766
10.0000034925
10.0000034818
10.0000034692
10.0000034334
10.0000033902
10.0000033283
10.0000032551
10.0000031671
10.0000030667
10.0000029544
10.0000028312
10.0000026986
10.0000025576
10.0000024099
10.0000022571
10.0000021011
10.0000019444
10.0000017899
10.0000016413
10.0000015029
10.0000013797
10.0000012769
10.0000012001
10.0000011538
10.0000011423
10.0000011674
10.0000012296
10.0000013266
10.000001455
10.0000016101
10.0000017874
10.0000019826
10.0000021919
10.0000024123
10.0000026408
10.0000028752
10.0000031132
10.000003353
10.0000035927
10.000003831
10.0000040667
10.0000042995
10.0000045289
10.000004755
10.0000049777
10.0000051976
10.0000054147
10.0000056296
10.000005842
10.0000060525
10.0000062608
10.0000064669
10.0000066704
10.0000068712
10.0000070686
10.0000072623
10.0000074516
10.0000076359
10.0000078145
10.0000079869
10.0000081525
10.0000083108
10.0000084612
10.0000086034
10.000008737
10.0000088617
10.0000089773
10.0000090837
10.0000091807
10.0000092684
10.0000093468
10.000009416
10.000009476
10.0000095272
10.0000095696
10.0000096034
10.000009629
10.0000096464
10.000009656
10.0000096576
10.000009652
10.0000096378
10.0000096178
10.0000095853
10.0000095535
10.0000094957
10.0000094678
10.0000093669
10.0000094061
10.0000000136
10.0000001034
10.000000185
10.000000261
10.0000003382
10.0000004173
10.0000004986
10.000000582
10.0000006677
10.0000007558
10.000000846
10.0000009386
10.0000010337
10.0000011317
10.0000012323
10.0000013356
10.0000014412
10.0000015489
10.000001658
10.0000017687
10.0000018797
10.0000019916
10.0000021022
10.0000022135
10.0000023212
10.0000024302
10.000002532
10.0000026372
10.0000027296
10.0000028301
10.0000029091
10.0000030041
10.0000030654
10.0000031541
10.0000031938
10.0000032741
10.0000032898
10.0000033573
10.0000033493
10.0000033964
10.000003368
10.0000033856
10.0000033404
10.0000033221
10.0000032609
10.0000032062
10.0000031266
10.0000030405
10.0000029399
10.000002829
10.0000027076
10.0000025771
10.0000024384
10.000002293
10.0000021423
10.0000019886
10.0000018346
10.0000016842
10.0000015419
10.0000014132
10.0000013042
10.0000012212
10.0000011699
10.0000011551
10.0000011793
10.0000012428
10.0000013428
10.0000014753
10.0000016349
10.0000018166
10.0000020159
10.0000022291
10.0000024527
10.0000026842
10.0000029208
10.0000031603
10.0000034004
10.000003639
10.0000038742
10.0000041046
10.0000043291
10.0000045471
10.0000047582
10.0000049623
10.0000051595
10.0000053502
10.0000055345
10.0000057131
10.0000058863
10.0000060545
10.000006218
10.0000063771
10.0000065319
10.0000066825
10.0000068287
10.0000069705
10.0000071076
10.0000072398
10.0000073668
10.0000074882
10.0000076038
10.0000077132
10.0000078161
10.0000079125
10.0000080019
10.0000080843
10.0000081595
10.0000082276
10.0000082885
10.0000083422
10.0000083887
10.0000084283
10.0000084609
10.0000084869
10.0000085062
10.0000085193
10.000008526
10.000008527
10.0000085217
10.0000085115
10.0000084937
10.0000084733
10.0000084405
10.0000084132
10.0000083575
10.0000083395
10.0000082423
10.0000082911
10.0000000115
10.0000001039
10.0000001872
10.0000002672
10.0000003482
10.0000004305
10.0000005143
10.0000005997
10.0000006868
10.0000007756
10.000000866
10.000000958
10.0000010517
10.0000011475
10.0000012453
10.0000013451
10.0000014466
10.0000015498
10.0000016538
10.0000017593
10.0000018642
10.0000019709
10.0000020744
10.0000021811
10.0000022804
10.0000023868
10.0000024781
10.0000025846
10.0000026627
10.0000027717
10.0000028295
10.0000029449
10.0000029735
10.0000031004
10.0000030908
10.0000032322
10.0000031791
10.0000033315
10.0000032381
10.0000033869
10.0000032681
10.000003388
10.0000032659
10.0000033307
10.0000032223
10.0000032201
10.0000031251
10.0000030651
10.0000029685
10.0000028701
10.0000027576
10.0000026347
10.0000025022
10.0000023607
10.0000022113
10.0000020561
10.0000018974
10.0000017396
10.0000015872
10.000001447
10.0000013259
10.0000012322
10.0000011725
10.0000011535
10.0000011777
10.0000012456
10.0000013528
10.0000014938
10.0000016615
10.00000185
10.0000020541
10.0000022702
10.0000024951
10.000002726
10.0000029615
10.0000031993
10.0000034374
10.0000036734
10.0000039054
10.0000041314
10.0000043503
10.000004561
10.0000047628
10.0000049555
10.0000051389
10.0000053135
10.0000054799
10.0000056381
10.0000057888
10.0000059322
10.0000060688
10.000006199
10.0000063232
10.0000064415
10.0000065543
10.0000066617
10.0000067637
10.0000068603
10.0000069515
10.0000070374
10.0000071176
10.0000071923
10.0000072613
10.0000073245
10.0000073819
10.0000074335
10.0000074792
10.0000075192
10.0000075534
10.0000075819
10.0000076049
10.0000076226
10.0000076349
10.0000076423
10.0000076447
10.0000076425
10.0000076357
10.0000076249
10.0000076092
10.0000075907
10.0000075659
10.000007541
10.0000075042
10.0000074764
10.0000074195
10.0000074044
10.00000731
10.0000073579
10.0000000142
10.0000001098
10.0000001978
10.0000002796
10.0000003619
10.0000004455
10.0000005306
10.0000006173
10.0000007055
10.0000007949
10.0000008857
10.0000009777
10.0000010708
10.0000011654
10.0000012614
10.0000013591
10.0000014577
10.0000015581
10.0000016582
10.0000017606
10.0000018605
10.0000019645
10.0000020614
10.0000021671
10.0000022573
10.0000023665
10.0000024436
10.0000025612
10.0000026152
10.0000027506
10.0000027661
10.0000029348
10.0000028896
10.0000031132
10.0000029804
10.0000032816
10.0000030379
10.0000034278
10.0000030692
10.0000035295
10.0000030896
10.0000035588
10.0000031124
10.0000034985
10.0000031323
10.0000033586
10.0000031176
10.0000031732
10.0000030296
10.0000029691
10.000002857
10.000002744
10.000002619
10.0000024817
10.0000023347
10.0000021784
10.0000020153
10.0000018492
10.0000016853
10.0000015306
10.0000013938
10.0000012846
10.0000012119
10.0000011833
10.0000012029
10.0000012699
10.0000013796
10.0000015241
10.0000016954
10.0000018862
10.0000020918
10.0000023074
10.0000025309
10.0000027603
10.0000029935
10.0000032286
10.0000034636
10.0000036963
10.0000039247
10.000004147
10.0000043617
10.0000045676
10.0000047639
10.00000495
10.0000051255
10.0000052905
10.0000054451
10.00000559
10.0000057258
10.0000058533
10.0000059725
10.0000060841
10.0000061882
10.0000062853
10.0000063756
10.0000064595
10.0000065371
10.0000066085
10.000006674
10.0000067337
10.0000067876
10.0000068358
10.0000068784
10.0000069155
10.0000069472
10.0000069736
10.0000069947
10.0000070109
10.0000070222
10.0000070289
10.000007031
10.0000070289
10.0000070226
10.0000070126
10.0000069989
10.000006982
10.0000069616
10.0000069388
10.0000069123
10.0000068846
10.0000068517
10.0000068206
10.0000067785
10.0000067476
10.0000066886
10.000006672
10.0000065811
10.0000066215
10.0000000123
10.0000001102
10.0000001996
10.000000285
10.0000003707
10.0000004571
10.0000005446
10.0000006333
10.0000007231
10.0000008139
10.0000009057
10.0000009983
10.0000010915
10.000001186
10.0000012811
10.0000013779
10.0000014747
10.0000015738
10.000001671
10.0000017722
10.0000018678
10.0000019717
10.000002062
10.0000021707
10.0000022497
10.0000023688
10.0000024256
10.0000025673
10.0000025824
10.0000027698
10.0000027102
10.0000029831
10.0000027959
10.0000032154
10.0000028265
10.0000034709
10.0000027956
10.0000037395
10.0000027171
10.0000039822
10.0000026356
10.0000041275
10.0000026194
10.0000040974
10.0000027152
10.0000038681
10.0000028856
10.0000035164
10.0000030063
10.0000031735
10.000002968
10.0000028979
10.0000027736
10.0000026367
10.0000024905
10.0000023279
10.0000021537
10.0000019709
10.0000017858
10.0000016074
10.000001446
10.0000013143
10.000001224
10.0000011865
10.0000012062
10.0000012823
10.000001406
10.000001567
10.0000017533
10.0000019572
10.0000021717
10.0000023936
10.0000026205
10.0000028506
10.0000030823
10.0000033138
10.0000035435
10.0000037693
10.0000039898
10.0000042033
10.0000044089
10.0000046053
10.0000047919
10.0000049681
10.0000051334
10.0000052877
10.0000054311
10.0000055639
10.0000056867
10.0000057999
10.0000059048
10.0000060015
10.0000060905
10.000006172
10.0000062462
10.0000063134
10.0000063739
10.0000064277
10.0000064751
10.0000065163
10.0000065515
10.0000065808
10.0000066044
10.0000066224
10.0000066352
10.0000066428
10.0000066455
10.0000066437
10.0000066374
10.000006627
10.0000066128
10.000006595
10.0000065739
10.0000065499
10.0000065231
10.000006494
10.0000064625
10.0000064295
10.0000063941
10.0000063584
10.0000063187
10.0000062818
10.0000062355
10.0000062009
10.0000061411
10.000006121
10.0000060351
10.0000060656
10.0000000151
10.0000001159
10.0000002093
10.0000002963
10.0000003831
10.0000004707
10.0000005595
10.0000006495
10.0000007406
10.0000008327
10.0000009254
10.0000010189
10.0000011125
10.0000012074
10.0000013022
10.0000013989
10.0000014944
10.0000015933
10.0000016882
10.0000017897
10.0000018813
10.0000019872
10.0000020705
10.0000021854
10.0000022513
10.0000023859
10.0000024167
10.0000025936
10.000002556
10.0000028188
10.0000026515
10.00000308
10.0000026765
10.0000034044
10.000002596
10.000003823
10.0000023764
10.0000043521
10.000002013
10.0000049561
10.0000015742
10.0000055021
10.0000012351
10.0000057572
10.0000012296
10.0000055005
10.0000016738
10.0000047475
10.0000023696
10.0000038463
10.0000028828
10.0000031955
10.0000029521
10.0000028381
10.0000027037
10.0000025295
10.0000023458
10.0000021435
10.0000019322
10.0000017257
10.0000015322
10.0000013667
10.0000012508
10.0000011993
10.0000012148
10.0000012905
10.0000014169
10.0000015828
10.000001778
10.0000019929
10.0000022199
10.0000024538
10.0000026911
10.0000029288
10.0000031651
10.0000033984
10.0000036273
10.0000038504
10.0000040662
10.0000042739
10.0000044725
10.0000046614
10.0000048398
10.0000050072
10.0000051631
10.0000053076
10.0000054406
10.0000055625
10.0000056737
10.0000057749
10.0000058668
10.0000059502
10.0000060258
10.0000060939
10.0000061546
10.0000062084
10.0000062553
10.0000062954
10.0000063291
10.0000063564
10.0000063775
10.0000063928
10.0000064023
10.0000064063
10.000006405
10.0000063988
10.0000063879
10.0000063726
10.0000063533
10.0000063303
10.0000063039
10.0000062744
10.0000062423
10.0000062079
10.0000061714
10.0000061333
10.0000060937
10.0000060532
10.0000060114
10.0000059698
10.0000059257
10.0000058846
10.0000058361
10.0000057984
10.0000057397
10.0000057161
10.0000056368
10.0000056574
10.0000000135
10.0000001166
10.0000002111
10.0000003013
10.0000003911
10.0000004812
10.0000005722
10.0000006641
10.000000757
10.0000008508
10.000000945
10.0000010398
10.0000011345
10.0000012303
10.0000013254
10.0000014228
10.0000015178
10.0000016173
10.0000017106
10.0000018134
10.0000019018
10.0000020107
10.0000020881
10.00000221
10.0000022643
10.0000024147
10.0000024218
10.0000026335
10.0000025457
10.0000028843
10.0000026087
10.000003201
10.0000025638
10.0000036408
10.0000023366
10.0000042881
10.0000018268
10.0000052403
10.0000009408
10.0000065493
9.99999968049
10.0000080991
9.99999829034
10.0000094572
9.99999735571
10.0000098976
9.9999975993
10.0000088399
9.99999923777
10.0000065711
10.0000014241
10.000004337
10.0000028096
10.0000031512
10.0000029583
10.0000027309
10.0000025517
10.0000023079
10.0000020668
10.0000018171
10.0000015535
10.0000013341
10.0000012137
10.0000011731
10.0000011538
10.0000011389
10.000001161
10.000001264
10.0000014632
10.00000174
10.0000020592
10.0000023878
10.0000027042
10.000002999
10.0000032719
10.0000035255
10.0000037632
10.000003987
10.0000041986
10.0000043984
10.0000045871
10.0000047644
10.0000049303
10.0000050841
10.0000052261
10.000005356
10.0000054745
10.000005582
10.0000056793
10.000005767
10.0000058459
10.0000059165
10.0000059796
10.0000060356
10.0000060848
10.0000061272
10.0000061629
10.0000061919
10.0000062145
10.0000062307
10.0000062408
10.000006245
10.0000062436
10.0000062367
10.0000062248
10.000006208
10.0000061869
10.0000061617
10.0000061328
10.0000061005
10.0000060654
10.0000060276
10.0000059879
10.000005946
10.0000059032
10.0000058588
10.0000058143
10.0000057687
10.0000057235
10.0000056779
10.0000056323
10.000005588
10.0000055401
10.0000054997
10.0000054445
10.0000054168
10.000005346
10.0000053556
10.0000000163
10.0000001221
10.00000022
10.0000003114
10.0000004022
10.0000004934
10.0000005855
10.0000006788
10.0000007731
10.0000008684
10.000000964
10.0000010603
10.000001156
10.0000012531
10.0000013489
10.0000014473
10.0000015424
10.0000016428
10.0000017356
10.0000018394
10.0000019265
10.0000020371
10.000002112
10.0000022373
10.0000022869
10.0000024443
10.0000024423
10.0000026689
10.0000025609
10.0000029339
10.0000026091
10.0000032855
10.0000025218
10.0000038107
10.0000021802
10.0000046622
10.0000013861
10.0000060766
9.99999985969
10.0000083434
9.99999732396
10.0000116372
9.99999377826
10.0000156302
9.99998996823
10.0000190319
9.99998768544
10.0000196957
9.99998901326
10.0000161552
9.9999941571
10.0000098542
10.000000053
10.0000047201
10.0000029835
10.0000029169
10.0000028706
10.0000025201
10.0000023056
10.0000018945
10.0000014679
10.0000014038
10.0000015366
10.0000011704
9.99999989762
9.99999807241
9.99999648472
9.99999577183
9.99999610046
9.99999721306
9.9999986814
10.0000001301
10.0000013457
10.0000022703
10.0000029402
10.0000034242
10.0000037866
10.0000040734
10.0000043141
10.0000045262
10.0000047197
10.0000048998
10.0000050685
10.0000052258
10.0000053703
10.0000055008
10.0000056163
10.0000057167
10.0000058025
10.0000058748
10.0000059352
10.0000059853
10.0000060265
10.0000060605
10.0000060882
10.0000061101
10.0000061267
10.0000061381
10.0000061444
10.0000061458
10.0000061423
10.000006134
10.0000061211
10.0000061036
10.0000060818
10.0000060558
10.0000060261
10.0000059927
10.0000059564
10.0000059169
10.0000058755
10.0000058313
10.0000057865
10.0000057391
10.0000056925
10.0000056433
10.0000055966
10.0000055466
10.000005501
10.0000054511
10.000005407
10.0000053577
10.0000053137
10.0000052662
10.0000052179
10.0000051783
10.0000051181
10.0000051053
10.0000000149
10.0000001229
10.000000222
10.0000003159
10.0000004093
10.0000005027
10.0000005967
10.0000006919
10.0000007879
10.0000008851
10.0000009823
10.0000010803
10.0000011777
10.0000012764
10.0000013735
10.0000014732
10.0000015693
10.0000016705
10.0000017641
10.0000018682
10.0000019566
10.0000020666
10.0000021441
10.0000022666
10.0000023225
10.0000024723
10.0000024843
10.0000026933
10.0000026148
10.0000029511
10.0000026827
10.0000032917
10.0000026214
10.0000038107
10.0000022934
10.0000047014
10.0000014274
10.0000063289
9.99999953419
10.0000093085
9.99999586064
10.0000144671
9.999989578
10.0000224165
9.99998054529
10.0000324064
9.99997077999
10.0000408186
9.99996543853
10.0000415366
9.99997026146
10.0000310114
9.99998472372
10.0000146874
9.99999901644
10.0000040317
10.0000035061
10.0000026877
10.0000024725
10.000001177
10.0000016611
10.0000038136
10.0000022395
9.99999127829
9.99997149221
9.99994973342
9.99993400965
9.99992888566
9.99993419866
9.99994644712
9.99996119395
9.99997491054
9.99998574098
9.99999331892
9.99999815558
10.0000010456
10.0000027094
10.0000036605
10.0000042156
10.0000045493
10.000004755
10.0000048836
10.0000049678
10.0000050299
10.0000050864
10.0000051473
10.0000052176
10.0000052974
10.0000053843
10.0000054744
10.0000055636
10.0000056482
10.0000057259
10.0000057948
10.0000058543
10.0000059039
10.0000059436
10.0000059734
10.0000059939
10.0000060055
10.000006009
10.0000060047
10.0000059935
10.0000059757
10.0000059523
10.0000059232
10.0000058899
10.0000058518
10.0000058112
10.0000057662
10.0000057207
10.0000056706
10.0000056228
10.0000055691
10.0000055212
10.0000054649
10.0000054192
10.0000053602
10.0000053184
10.0000052553
10.0000052181
10.0000051482
10.0000051141
10.0000050337
10.0000049979
10.0000049058
10.00000486
10.0000047633
10.0000000175
10.000000128
10.0000002299
10.0000003246
10.0000004186
10.0000005131
10.0000006082
10.0000007046
10.0000008021
10.0000009007
10.0000009996
10.0000010993
10.0000011985
10.0000012987
10.0000013975
10.0000014983
10.000001596
10.0000016978
10.0000017935
10.0000018969
10.0000019887
10.0000020957
10.00000218
10.0000022946
10.0000023649
10.0000024961
10.0000025391
10.0000027061
10.000002694
10.0000029388
10.0000028101
10.0000032256
10.0000028414
10.0000036381
10.00000268
10.0000043403
10.0000020776
10.0000057007
10.0000004876
10.0000085005
9.99999680407
10.0000142194
9.99998910893
10.000025133
9.9999749513
10.000043351
9.99995335293
10.0000675178
9.99992929101
10.0000880178
9.99991689834
10.000088106
9.99993140947
10.0000592707
9.99996966957
10.0000183548
10.000001852
10.000001764
10.0000007467
10.0000007432
10.0000142614