/*--------------------------------*- C++ -*----------------------------------*\
  =========                 |
  \\      /  F ield         | OpenFOAM: The Open Source CFD Toolbox
   \\    /   O peration     | Website:  https://openfoam.org
    \\  /    A nd           | Version:  7
     \\/     M anipulation  |
\*---------------------------------------------------------------------------*/
FoamFile
{
    version     2.0;
    format      ascii;
    class       volScalarField;
    location    "2640";
    object      p;
}
// * * * * * * * * * * * * * * * * * * * * * * * * * * * * * * * * * * * * * //

dimensions      [0 2 -2 0 0 0 0];

internalField   nonuniform List<scalar> 
8192
(
0.000573833341535
0.000402281942292
0.000316661938796
0.000272543180436
0.000247512906457
0.000232270731307
0.000222398677567
0.000215652123239
0.000210824106811
0.000207230539356
0.000204464011149
0.000202270565024
0.000200485288783
0.000198997194078
0.000197729257569
0.000196626620132
0.000195649344219
0.000194767812535
0.000193959711048
0.000193207993631
0.000192499473151
0.000191823823427
0.000191172857076
0.000190539992761
0.000189919854594
0.000189307965275
0.000188700506118
0.000188094125191
0.000187485779597
0.000186872601675
0.000186251781674
0.000185620460882
0.000184975629542
0.000184314025598
0.0001836320305
0.00018292555925
0.000182189941861
0.000181419794507
0.00018060887884
0.000179749949614
0.000178834591675
0.000177853050138
0.000176794059868
0.000175644684848
0.000174390182128
0.000173013911398
0.000171497316581
0.000169820012406
0.000167960012377
0.000165894136341
0.000163598630679
0.000161050023498
0.00015822621642
0.000155107787687
0.00015167944691
0.000147931547869
0.000143861533418
0.000139475164977
0.000134787378294
0.000129822616692
0.000124614523783
0.000119204940371
0.000113642240162
0.000107979149696
0.000102270297794
9.65697989506e-05
9.09291633968e-05
8.53957302019e-05
8.00116787385e-05
7.48135530325e-05
6.98321438988e-05
6.50925567516e-05
6.06143302579e-05
5.64115395184e-05
5.24928824107e-05
4.88617949876e-05
4.55166578551e-05
4.2451147357e-05
3.96547559178e-05
3.71134714733e-05
3.48105725893e-05
3.27274767383e-05
3.08445727888e-05
2.91419782935e-05
2.76001783422e-05
2.6200524304e-05
2.49255885751e-05
2.37593868031e-05
2.26874868845e-05
2.16970288297e-05
2.07766786461e-05
1.99165379145e-05
1.91080262219e-05
1.8343750576e-05
1.76173713855e-05
1.6923472294e-05
1.62574378057e-05
1.56153415548e-05
1.49938458929e-05
1.43901133156e-05
1.38017288703e-05
1.32266330857e-05
1.26630640253e-05
1.21095077438e-05
1.15646556954e-05
1.10273684305e-05
1.04966442784e-05
9.97159252922e-06
9.4514100255e-06
8.93536089759e-06
8.4227586022e-06
7.91295027295e-06
7.40530288815e-06
6.89919171509e-06
6.39399118807e-06
5.8890696604e-06
5.38378974838e-06
4.87751826207e-06
4.36965177307e-06
3.85966937976e-06
3.34723240456e-06
2.8323682653e-06
2.31580854338e-06
1.79962185847e-06
1.28843945303e-06
7.91964449572e-07
3.31138351821e-07
1.0427090505e-08
0.000424921308934
0.000361405744669
0.000311713545173
0.000279058205903
0.000257132273724
0.000241945715518
0.000231120117741
0.000223190838396
0.000217232808519
0.000212647765171
0.000209039715853
0.000206140509654
0.000203764529249
0.000201780593852
0.000200094194682
0.000198636036334
0.000197354494532
0.000196210551216
0.000195174326229
0.000194222657463
0.0001933373821
0.000192504095087
0.000191711237718
0.000190949418173
0.000190210897141
0.00018948919237
0.000188778769527
0.000188074796155
0.000187372941551
0.00018666920964
0.000185959796006
0.000185240961705
0.000184508917254
0.000183759712401
0.000182989127704
0.000182192564974
0.000181364933971
0.000180500533783
0.000179592927788
0.000178634812568
0.000177617882113
0.000176532690987
0.000175368522117
0.000174113268435
0.000172753340926
0.000171273620467
0.000169657474945
0.00016788686792
0.00016594258743
0.000163804624389
0.000161452725381
0.000158867135556
0.000156029530327
0.000152924112564
0.000149538824335
0.000145866595017
0.000141906522438
0.000137664867228
0.000133155733313
0.000128401315639
0.000123431621043
0.000118283617503
0.00011299983894
0.000107626562151
0.000102211755193
9.68030454355e-05
9.14459525313e-05
8.61825478037e-05
8.10505838238e-05
7.60830446295e-05
7.13079908518e-05
6.67485618672e-05
6.2423029169e-05
5.83448501472e-05
5.45227228054e-05
5.09606780175e-05
4.76582577433e-05
4.46108201113e-05
4.18099885678e-05
3.9244234451e-05
3.68995560359e-05
3.4760201916e-05
3.28093820946e-05
3.10299180215e-05
2.94047962285e-05
2.79176074313e-05
2.65528673967e-05
2.52962280224e-05
2.41345935795e-05
2.30561609217e-05
2.20504020916e-05
2.11080066814e-05
2.02207980612e-05
1.93816351915e-05
1.85843083422e-05
1.78234351103e-05
1.7094360565e-05
1.63930643019e-05
1.57160754993e-05
1.50603967426e-05
1.44234363187e-05
1.38029488103e-05
1.31969831199e-05
1.2603837426e-05
1.20220200675e-05
1.14502158317e-05
1.088725671e-05
1.03320967102e-05
9.78378994685e-06
9.24147177952e-06
8.70434244369e-06
8.17165320496e-06
7.64269481601e-06
7.11678874894e-06
6.59328160088e-06
6.07154403671e-06
5.55097599913e-06
5.03102157488e-06
4.51119839064e-06
3.99114987143e-06
3.47073313589e-06
2.95016367898e-06
2.43025081953e-06
1.91278138553e-06
1.40114946919e-06
9.01435057745e-07
4.23830438223e-07
5.1250805955e-08
0.000341978007196
0.000319307926262
0.000293312907982
0.000272073005275
0.000255950519262
0.00024363660736
0.000234112027807
0.000226649330931
0.000220726637594
0.000215964851099
0.000212085753468
0.00020888336293
0.000206203893985
0.000203931548451
0.000201978366612
0.000200276939236
0.000198775145077
0.000197432326644
0.000196216490456
0.0001951022404
0.000194069238484
0.000193101047682
0.000192184253399
0.000191307789773
0.000190462417442
0.000189640314207
0.000188834750023
0.000188039825458
0.000187250257456
0.000186461199959
0.000185668091299
0.000184866521051
0.000184052109512
0.000183220395835
0.000182366730893
0.000181486172164
0.000180573378119
0.000179622500769
0.000178627075323
0.000177579907328
0.000176472958365
0.000175297233467
0.000174042674835
0.00017269806957
0.000171250981561
0.000169687721916
0.000167993375432
0.000166151905024
0.000164146357919
0.000161959198867
0.000159572791891
0.00015697004515
0.0001541352189
0.000151054877854
0.00014771894466
0.000144121787527
0.000140263252544
0.000136149537267
0.000131793794822
0.000127216363297
0.000122444532784
0.00011751180247
0.00011245664229
0.000107320857632
0.000102147737638
9.69802189005e-05
9.18593046822e-05
8.68228899704e-05
8.19050220264e-05
7.71355433103e-05
7.25399865935e-05
6.81395886072e-05
6.39513268111e-05
5.99879404251e-05
5.62579448683e-05
5.27656804981e-05
4.95114442115e-05
4.6491743206e-05
4.36996859691e-05
4.11254989743e-05
3.87571327162e-05
3.65809076703e-05
3.45821476184e-05
3.27457566287e-05
3.10567089497e-05
2.95004373135e-05
2.80631176971e-05
2.67318591437e-05
2.54948121185e-05
2.43412119452e-05
2.32613729175e-05
2.22466477852e-05
2.12893642316e-05
2.03827481784e-05
1.95208407112e-05
1.86984141049e-05
1.79108901066e-05
1.71542630399e-05
1.64250286772e-05
1.57201197993e-05
1.50368482354e-05
1.4372853507e-05
1.37260573667e-05
1.30946240446e-05
1.24769253475e-05
1.18715103657e-05
1.12770789604e-05
1.06924588563e-05
1.0116585625e-05
9.54848552011e-06
8.98726062661e-06
8.43207648725e-06
7.88215193024e-06
7.33675158963e-06
6.7951812783e-06
6.25678729126e-06
5.72096060845e-06
5.18714819644e-06
4.65487395553e-06
4.12377373733e-06
3.59365016631e-06
3.0645563421e-06
2.53692117869e-06
2.01173590838e-06
1.49082741942e-06
9.77188844042e-07
4.74746043412e-07
6.24687370484e-08
0.000297434481086
0.000289040621978
0.000274842078594
0.00026104375914
0.000249609602948
0.000240329102659
0.000232749810568
0.00022650370869
0.000221312807156
0.000216964613607
0.000213293377547
0.000210167998753
0.000207483966686
0.000205157597176
0.000203121677227
0.000201322071069
0.000199715040039
0.000198265117385
0.00019694342202
0.000195726320722
0.000194594366222
0.000193531453038
0.000192524144568
0.000191561134629
0.000190632814337
0.000189730921481
0.000188848254351
0.000187978436083
0.000187115717685
0.000186254810403
0.000185390742099
0.000184518731386
0.000183634073567
0.000182732035313
0.000181807754849
0.000180856145173
0.000179871798213
0.000178848888593
0.000177781076053
0.000176661406583
0.000175482213025
0.000174235017389
0.000172910438518
0.000171498111065
0.000169986624172
0.000168363491651
0.000166615168881
0.000164727135631
0.000162684066974
0.000160470116412
0.00015806933369
0.000155466234084
0.000152646523632
0.000149597966849
0.000146311360021
0.000142781549138
0.000139008409726
0.000134997691258
0.000130761621036
0.000126319163441
0.000121695841899
0.000116923062721
0.000112036939561
0.000107076705706
0.00010208289739
9.70955531259e-05
9.215270034e-05
8.72892864121e-05
8.25365678e-05
7.79218854238e-05
7.3468666368e-05
6.91964996542e-05
6.51211893633e-05
6.12547554335e-05
5.76054054739e-05
5.41775310626e-05
5.09717870496e-05
4.79852983293e-05
4.52120109564e-05
4.26431739716e-05
4.02679123168e-05
3.80738377023e-05
3.60476434076e-05
3.41756395865e-05
3.24442010153e-05
3.08401157882e-05
2.93508362793e-05
2.79646427965e-05
2.66707344858e-05
2.54592635445e-05
2.4321327512e-05
2.32489326527e-05
2.22349386641e-05
2.12729928535e-05
2.03574595102e-05
1.94833487546e-05
1.86462474957e-05
1.7842254372e-05
1.70679195256e-05
1.63201897889e-05
1.55963592353e-05
1.48940250618e-05
1.42110483702e-05
1.35455195809e-05
1.28957279307e-05
1.22601347466e-05
1.16373499648e-05
1.10261116385e-05
1.04252679836e-05
9.83376180529e-06
9.25061697606e-06
8.67492694438e-06
8.10584511053e-06
7.54257724478e-06
6.98437602867e-06
6.43053820144e-06
5.88040479319e-06
5.33336546103e-06
4.78886815366e-06
4.24643620171e-06
3.70569571622e-06
3.16641799695e-06
2.62858364637e-06
2.09247635137e-06
1.55879932536e-06
1.02869648524e-06
5.03029110319e-07
6.42990735844e-08
0.000269828071033
0.000267848866763
0.000260039118775
0.000250836889522
0.000242547378908
0.000235508123953
0.000229562267815
0.00022450456709
0.00022016671391
0.000216419031481
0.000213160234904
0.00021030905172
0.000207798835911
0.000205574197065
0.000203588771543
0.000201803619212
0.000200185979648
0.000198708258099
0.000197347177421
0.000196083061828
0.00019489923078
0.000193781486809
0.000192717683546
0.000191697361904
0.000190711443649
0.000189751972924
0.000188811897416
0.000187884882529
0.000186965150986
0.000186047342934
0.000185126394165
0.000184197427699
0.000183255654126
0.000182296278922
0.000181314414283
0.000180304993502
0.000179262686203
0.000178181813192
0.000177056260021
0.000175879389014
0.000174643950097
0.000173341991861
0.000171964775484
0.000170502696075
0.000168945218228
0.000167280835794
0.00016549706942
0.000163580519808
0.00016151699857
0.000159291761871
0.000156889872275
0.000154296710256
0.000151498645816
0.000148483862729
0.000145243303403
0.000141771676288
0.000138068444495
0.000134138698741
0.000129993808873
0.000125651745003
0.000121136962977
0.000116479772321
0.000111715163588
0.000106881172873
0.000102016982098
9.71610367216e-05
9.23495136149e-05
8.76153192767e-05
8.29876118747e-05
7.84917423138e-05
7.41494018416e-05
6.9978789788e-05
6.59946974744e-05
6.22084899873e-05
5.86280285716e-05
5.52576065745e-05
5.20979731282e-05
4.91464986869e-05
4.63975023414e-05
4.38427239635e-05
4.14718943371e-05
3.92733420322e-05
3.72345772784e-05
3.53428072753e-05
3.35853563786e-05
3.19499831417e-05
3.04250996767e-05
2.89999071124e-05
2.76644639595e-05
2.64097042929e-05
2.52274204751e-05
2.41102226024e-05
2.30514838734e-05
2.20452787867e-05
2.10863188621e-05
2.01698891823e-05
1.92917877069e-05
1.84482686345e-05
1.76359903329e-05
1.6851968121e-05
1.60935317608e-05
1.53582875179e-05
1.46440843941e-05
1.39489842476e-05
1.3271235346e-05
1.26092490595e-05
1.19615792653e-05
1.13269042219e-05
1.07040105472e-05
1.00917791314e-05
9.48917269947e-06
8.8952249399e-06
8.30903101071e-06
7.72973944628e-06
7.15654540607e-06
6.58868545145e-06
6.02543401604e-06
5.46610208256e-06
4.91003873767e-06
4.35663691842e-06
3.80534525091e-06
3.25568890352e-06
2.70730221962e-06
2.15997032262e-06
1.61364598411e-06
1.06828714423e-06
5.23040223038e-07
6.46319439388e-08
0.000251493569542
0.000252374294654
0.00024831860908
0.000242172988831
0.00023606917425
0.000230628885302
0.000225902530394
0.000221795069408
0.000218199767661
0.000215028015037
0.000212210343108
0.00020969186966
0.000207428100782
0.000205382032209
0.000203522299664
0.000201821997125
0.000200257883151
0.00019880980586
0.000197460253275
0.000196193980525
0.000194997689447
0.000193859748214
0.000192769944223
0.000191719266013
0.000190699710874
0.000189704115264
0.000188726005221
0.000187759465006
0.000186799018466
0.000185839522694
0.000184876073468
0.000183903918827
0.000182918377732
0.000181914763093
0.000180888307455
0.000179834089894
0.000178746962782
0.000177621477336
0.000176451807028
0.000175231668379
0.000173954239013
0.000172612073696
0.00017119702004
0.000169700137177
0.000168111622792
0.000166420757054
0.000164615875733
0.000162684389821
0.000160612874086
0.000158387252021
0.000155993107064
0.00015341614799
0.000150642846533
0.000147661246601
0.000144461917336
0.000141038992312
0.000137391211092
0.000133522862779
0.000129444522039
0.000125173460607
0.000120733610796
0.000116154968981
0.000111472384268
0.000106723797023
0.000101948151194
9.71833226975e-05
9.2464493149e-05
8.78231911272e-05
8.32869683577e-05
7.88795516914e-05
7.46211788423e-05
7.05288820803e-05
6.66166073915e-05
6.28951681377e-05
5.93721031921e-05
5.60515389338e-05
5.29341504714e-05
5.0017289287e-05
4.72953009637e-05
4.47600104804e-05
4.24013166333e-05
4.02078214377e-05
3.81674253185e-05
3.62678385893e-05
3.44969840044e-05
3.28432868272e-05
3.12958633402e-05
2.98446262396e-05
2.84803269698e-05
2.7194553521e-05
2.59796988317e-05
2.48289115081e-05
2.37360372079e-05
2.26955565356e-05
2.1702523166e-05
2.07525045891e-05
1.98415267356e-05
1.8966023182e-05
1.81227890738e-05
1.73089397426e-05
1.65218737163e-05
1.57592398435e-05
1.5018908106e-05
1.42989437895e-05
1.35975845907e-05
1.29132203617e-05
1.22443751198e-05
1.15896910783e-05
1.09479143887e-05
1.03178824081e-05
9.69851224072e-06
9.08879042545e-06
8.48776357798e-06
7.89452992355e-06
7.30823161029e-06
6.72804784629e-06
6.1531889127e-06
5.58289134252e-06
5.0164146927e-06
4.45304071859e-06
3.89207591905e-06
3.33285816755e-06
2.77476527634e-06
2.21721235946e-06
1.6595889954e-06
1.10099398681e-06
5.39480628549e-07
6.52808192089e-08
0.000238625871447
0.000240732294247
0.000238918993798
0.000234888396851
0.000230390389103
0.000226141603218
0.000222331275333
0.000218953738574
0.000215951599333
0.000213264417163
0.0002108411727
0.000208641075895
0.000206631515371
0.000204785889694
0.000203081961681
0.000201500736762
0.000200025723772
0.00019864244331
0.000197338087185
0.00019610126772
0.0001949218206
0.00019379064072
0.000192699539784
0.000191641119571
0.00019060865755
0.000189596002848
0.000188597481233
0.000187607809562
0.000186622013601
0.000185635352696
0.000184643251466
0.00018364123488
0.000182624865363
0.00018158968174
0.000180531138889
0.00017944454704
0.00017832500966
0.000177167358935
0.000175966087909
0.000174715278517
0.000173408525032
0.000172038852901
0.000170598633785
0.000169079498886
0.000167472254642
0.00016576680784
0.000163952111358
0.000162016147329
0.00015994597115
0.000157727846771
0.000155347508909
0.000152790588289
0.000150043227661
0.000147092896307
0.000143929379576
0.000140545883973
0.000136940167954
0.000133115591399
0.000129081969311
0.000124856104123
0.000120461850485
0.000115929558725
0.000111294794772
0.00010659637849
0.000101873997392
9.71658281905e-05
9.25067377641e-05
8.79273549101e-05
8.34539450822e-05
7.91088409169e-05
7.49110197088e-05
7.08765265033e-05
6.70186252211e-05
6.33477052695e-05
5.98710513996e-05
5.65926108142e-05
5.3512879922e-05
5.06289945764e-05
4.79350515877e-05
4.54226302615e-05
4.308143832e-05
4.08999893404e-05
3.88662291102e-05
3.69680560361e-05
3.51937124341e-05
3.35320492762e-05
3.19726826179e-05
3.05060662061e-05
2.91235045056e-05
2.78171267311e-05
2.65798376927e-05
2.54052567299e-05
2.42876522784e-05
2.3221876817e-05
2.22033049694e-05
2.12277762194e-05
2.02915428454e-05
1.93912231686e-05
1.85237599004e-05
1.7686383224e-05
1.68765781659e-05
1.60920557993e-05
1.53307278307e-05
1.45906841515e-05
1.38701729673e-05
1.3167583162e-05
1.24814285814e-05
1.18103339642e-05
1.11530222676e-05
1.05083031743e-05
9.87506257669e-06
9.25225287118e-06
8.63888390313e-06
8.03401443989e-06
7.43674407032e-06
6.84620548307e-06
6.26155712817e-06
5.68197635676e-06
5.10665320058e-06
4.53478494774e-06
3.96557127436e-06
3.39820815792e-06
2.83187401923e-06
2.26568853397e-06
1.69859329571e-06
1.12904579484e-06
5.54379374551e-07
6.71434947464e-08
0.000229179284994
0.000231748576077
0.000231282934316
0.000228734631397
0.000225452573735
0.000222131319989
0.000219036076713
0.000216229031579
0.00021369580024
0.000211400790591
0.00020930762225
0.000207385037375
0.00020560753549
0.000203954448
0.000202408796434
0.000200956338882
0.000199584868699
0.000198283725048
0.00019704345641
0.0001958555867
0.000194712447438
0.000193607051546
0.000192532993237
0.000191484364439
0.000190455682031
0.000189441822498
0.000188437961833
0.000187439521646
0.000186442113603
0.000185441487664
0.000184433485335
0.000183413992521
0.000182378892569
0.000181324019257
0.000180245108911
0.000179137750863
0.00017799733529
0.000176818997523
0.000175597557769
0.00017432745526
0.00017300267588
0.000171616672613
0.000170162278663
0.00016863161414
0.00016701598893
0.000165305807281
0.000163490483972
0.000161558388279
0.000159496840123
0.00015729219235
0.00015493004164
0.000152395614499
0.000149674368413
0.000146752826793
0.000143619629143
0.000140266733121
0.000136690668136
0.000132893723545
0.000128884952517
0.000124680860156
0.000120305604273
0.000115790498246
0.000111172642337
0.000106492684452
0.000101792005221
9.71098883584e-05
9.24814549978e-05
8.79367640651e-05
8.35009620498e-05
7.91950921183e-05
7.50369833961e-05
7.10418366853e-05
6.72223952178e-05
6.35887740778e-05
6.01481075526e-05
5.69041922515e-05
5.385728181e-05
5.10041378334e-05
4.8338369309e-05
4.58510162908e-05
4.35312774105e-05
4.13672622717e-05
3.93466680403e-05
3.7457319124e-05
3.56875503411e-05
3.40264450025e-05
3.24639557206e-05
3.09909402222e-05
2.95991413339e-05
2.82811341751e-05
2.70302569196e-05
2.58405359274e-05
2.47066117428e-05
2.36236695871e-05
2.25873760142e-05
2.15938223033e-05
2.06394744447e-05
1.97211292897e-05
1.88358762272e-05
1.79810637641e-05
1.71542703518e-05
1.63532789002e-05
1.55760544322e-05
1.48207244418e-05
1.40855615284e-05
1.33689679818e-05
1.26694619903e-05
1.19856652271e-05
1.13162915622e-05
1.06601367127e-05
1.00160686262e-05
9.38301845187e-06
8.75997192873e-06
8.14596107765e-06
7.54005605997e-06
6.94135712102e-06
6.34898650995e-06
5.76208028551e-06
5.17977977748e-06
4.60122216682e-06
4.02552867404e-06
3.45178651531e-06
2.87901516255e-06
2.30609525948e-06
1.7316155044e-06
1.15356371342e-06
5.68799316972e-07
7.07371101778e-08
0.000221987115555
0.00022466579441
0.000225009289542
0.000223504031972
0.000221153654744
0.000218573677016
0.000216056828363
0.000213710436955
0.000211555261424
0.000209578293619
0.000207756788943
0.000206067814336
0.000204491328972
0.000203010663938
0.000201612108423
0.000200284297183
0.000199017648865
0.000197803921351
0.000196635881889
0.000195507069315
0.000194411623825
0.000193344163808
0.000192299694469
0.000191273537493
0.000190261274457
0.000189258699192
0.000188261776018
0.000187266603378
0.000186269375514
0.000185266345646
0.00018425379453
0.000183227996267
0.00018218518353
0.000181121511607
0.000180033020626
0.000178915595191
0.000177764920581
0.000176576434489
0.000175345273179
0.000174066210745
0.000172733590121
0.000171341244452
0.000169882407734
0.000168349614283
0.000166734588079
0.00016502812565
0.000163219980717
0.000161298765765
0.000159251895687
0.000157065611051
0.000154725131555
0.000152214998833
0.000149519664731
0.000146624358314
0.000143516219624
0.000140185630317
0.000136627624274
0.000132843246603
0.000128840740197
0.000124636430441
0.000120255111811
0.000115729649638
0.000111099515991
0.000106408188429
0.000101699743687
9.70153859628e-05
9.23909910989e-05
8.78562460703e-05
8.3435196907e-05
7.91475824292e-05
7.50101255121e-05
7.10373012509e-05
6.72415018006e-05
6.36327445521e-05
6.02181510824e-05
5.70014281422e-05
5.39825468808e-05
5.11577508422e-05
4.85199301494e-05
4.60592988333e-05
4.37642398058e-05
4.16221625093e-05
3.96202491231e-05
3.77460215852e-05
3.59877164585e-05
3.43344916443e-05
3.2776505531e-05
3.13049103731e-05
2.99117948408e-05
2.8590101201e-05
2.73335338865e-05
2.61364693712e-05
2.49938726059e-05
2.39012222346e-05
2.28544451131e-05
2.18498596711e-05
2.08841272752e-05
1.99542105651e-05
1.90573377811e-05
1.81909721481e-05
1.73527855258e-05
1.65406356109e-05
1.57525461225e-05
1.49866894522e-05
1.42413713839e-05
1.35150175096e-05
1.28061610657e-05
1.2113431914e-05
1.14355464682e-05
1.07712983556e-05
1.0119549658e-05
9.47922255977e-06
8.8492912737e-06
8.22877408566e-06
7.61672539224e-06
7.01222755128e-06
6.41438235112e-06
5.82230174747e-06
5.23509727753e-06
4.65186691672e-06
4.07167686808e-06
3.49353299405e-06
2.91633114097e-06
2.3387655198e-06
1.75915940723e-06
1.17517160735e-06
5.83359508924e-07
7.6402266472e-08
0.000216351735251
0.000218980331028
0.0002198056949
0.000219035030529
0.000217400696534
0.000215420321106
0.000213382279381
0.000211418930289
0.000209577070244
0.000207863039615
0.000206266816664
0.000204773470872
0.000203368027286
0.000202037193091
0.000200769710592
0.000199556177954
0.000198388714131
0.000197260622201
0.000196166104092
0.000195100036557
0.000194057801807
0.000193035161656
0.000192028164225
0.000191033074052
0.000190046318576
0.000189064445812
0.000188084090219
0.000187101943297
0.00018611472485
0.000185119154665
0.000184111929943
0.000183089699661
0.000182049038079
0.000180986416671
0.000179898173803
0.000178780481387
0.000177629307602
0.000176440374607
0.000175209109922
0.000173930589909
0.000172599473502
0.000171209924109
0.000169755517545
0.000168229134146
0.000166622834246
0.000164927718527
0.000163133779174
0.000161229755377
0.000159203018337
0.000157039526943
0.000154723913568
0.000152239774813
0.000149570244166
0.000146698900135
0.000143611007456
0.000140295011797
0.000136744144981
0.000132957986901
0.000128943865927
0.000124717986774
0.000120306072752
0.00011574313493
0.000111071925852
0.000106339883619
0.000101594923511
9.68810596034e-05
9.22353848961e-05
8.76872772721e-05
8.32595398469e-05
7.89704712789e-05
7.48356714339e-05
7.08690007641e-05
6.70826936438e-05
6.34868837314e-05
6.00888552879e-05
5.68923139173e-05
5.38969204205e-05
5.10982511008e-05
4.84882286264e-05
4.60559336993e-05
4.37886123616e-05
4.16726746754e-05
3.96945307059e-05
3.78411904164e-05
3.61006259642e-05
3.44619385088e-05
3.2915386697e-05
3.1452330241e-05
3.00651297584e-05
2.87470306351e-05
2.74920474555e-05
2.6294857614e-05
2.51507076278e-05
2.40553327829e-05
2.3004889237e-05
2.1995897093e-05
2.10251927904e-05
2.00898892573e-05
1.91873424407e-05
1.83151230523e-05
1.7470992558e-05
1.66528826257e-05
1.58588773841e-05
1.50871979744e-05
1.4336188968e-05
1.36043063031e-05
1.28901064532e-05
1.21922365863e-05
1.15094255111e-05
1.08404752315e-05
1.01842529494e-05
9.53968336947e-06
8.90574115806e-06
8.28144340383e-06
7.66584190247e-06
7.05801503216e-06
6.45705888102e-06
5.8620770734e-06
5.27216833523e-06
4.68641004638e-06
4.1038345326e-06
3.52339206729e-06
2.94388968776e-06
2.36388735967e-06
1.78152437475e-06
1.19424791028e-06
5.98443447342e-07
8.4365744968e-08
0.000211837534436
0.000214348755379
0.000215455287924
0.000215201741981
0.000214117434224
0.000212623885586
0.000210987045922
0.0002093487709
0.000207773047032
0.000206281557318
0.00020487553946
0.000203547660291
0.000202287906494
0.000201086238381
0.000199933612728
0.00019882223854
0.000197745505291
0.000196697796184
0.000195674282742
0.000194670739672
0.0001936833919
0.000192708793782
0.000191743735987
0.000190785174396
0.000189830175695
0.000188875875169
0.000187919444872
0.000186958065481
0.000185988901317
0.000185009076807
0.000184015657799
0.00018300563088
0.000181975881897
0.000180923172941
0.000179844117046
0.000178735149763
0.000177592496655
0.000176412135495
0.000175189751719
0.000173920685227
0.000172599866257
0.000171221737506
0.000169780159291
0.000168268294343
0.000166678469336
0.000165002012019
0.000163229066939
0.000161348400668
0.000159347220757
0.000157211052467
0.000154923742408
0.000152467682709
0.000149824359965
0.00014697531113
0.000143903499066
0.000140595014442
0.000137040920176
0.000133239048292
0.000129195640352
0.000124926768915
0.000120459331754
0.00011583109993
0.000111089135227
0.000106286181114
0.000101475375548
9.67045872096e-05
9.20125739622e-05
8.7428308192e-05
8.29730162014e-05
7.86632930182e-05
7.451355508e-05
7.05371739597e-05
6.67464628486e-05
6.31519362975e-05
5.97612601029e-05
5.65782527856e-05
5.36022368353e-05
5.08279458769e-05
4.82460422004e-05
4.5844117238e-05
4.36079192886e-05
4.15225365023e-05
3.95733437247e-05
3.77466370979e-05
3.60299742979e-05
3.44122880865e-05
3.28838517955e-05
3.14361637455e-05
3.00617982737e-05
2.87542527301e-05
2.75078060128e-05
2.63173951703e-05
2.51785114042e-05
2.40871141342e-05
2.30395607301e-05
2.20325492569e-05
2.10630717915e-05
2.01283761812e-05
1.92259345175e-05
1.83534169168e-05
1.75086695131e-05
1.66896957849e-05
1.58946405459e-05
1.51217760524e-05
1.43694898162e-05
1.3636273773e-05
1.29207145434e-05
1.22214845536e-05
1.15373338346e-05
1.08670823279e-05
1.0209612559e-05
9.5638625257e-06
8.92881866487e-06
8.30350871706e-06
7.68699428527e-06
7.07836277698e-06
6.47671828144e-06
5.88117063473e-06
5.29082144314e-06
4.70474493237e-06
4.12195996822e-06
3.54138699049e-06
2.961779587e-06
2.38161507748e-06
1.79892407041e-06
1.21104222954e-06
6.14289787396e-07
9.47650595095e-08
0.000208161273367
0.000210531265636
0.000211794717296
0.000211904500682
0.000211241946165
0.0002101435277
0.000208844473315
0.00020748536506
0.000206139803113
0.00020484065449
0.000203598509372
0.00020241291688
0.000201278631391
0.000200188836348
0.000199136673415
0.000198115874661
0.000197120946548
0.000196147146919
0.000195190379365
0.000194247065947
0.000193314025841
0.000192388370468
0.000191467417409
0.000190548621702
0.000189629521751
0.0001887076967
0.000187780735035
0.000186846206291
0.000185901635877
0.000184944484441
0.000183972130154
0.000182981850382
0.00018197080281
0.00018093600527
0.000179874313443
0.000178782395569
0.000177656703108
0.000176493436073
0.000175288501385
0.000174037462121
0.000172735474891
0.000171377211842
0.000169956762946
0.000168467513556
0.000166901991959
0.000165251682713
0.000163506804946
0.000161656062713
0.000159686389133
0.000157582729997
0.000155327945767
0.000152902947776
0.000150287208447
0.000147459768553
0.000144400779082
0.000141093466623
0.00013752627407
0.000133694924366
0.000129604315175
0.000125270282803
0.000120721079831
0.000115997878284
0.000111153249216
0.000106246904664
0.000101338968303
9.64824706907e-05
9.17182881294e-05
8.70746806695e-05
8.25707199724e-05
7.82208976447e-05
7.40383658135e-05
7.00361763761e-05
6.62270236637e-05
6.26221319609e-05
5.92298156838e-05
5.60541412625e-05
5.30940496939e-05
5.03432045602e-05
4.77906382192e-05
4.54220158289e-05
4.32211601473e-05
4.11714718521e-05
3.92570084565e-05
3.74631497935e-05
3.57768994575e-05
3.41869257487e-05
3.26834478215e-05
3.12580495012e-05
2.99034745025e-05
2.8613432879e-05
2.73824320248e-05
2.62056357974e-05
2.5078750238e-05
2.39979322785e-05
2.29597172852e-05
2.19609615937e-05
2.09987967342e-05
2.00705927037e-05
1.91739281917e-05
1.83065661661e-05
1.74664335908e-05
1.66516043534e-05
1.58602846927e-05
1.50908005917e-05
1.43415867187e-05
1.36111765959e-05
1.28981937372e-05
1.22013435508e-05
1.15194058329e-05
1.08512277031e-05
1.01957168442e-05
9.55183490797e-06
8.91859093679e-06
8.29503461576e-06
7.68024910832e-06
7.07334311501e-06
6.47344160316e-06
5.87967432867e-06
5.29116072222e-06
4.70698880076e-06
4.12618428979e-06
3.5476638652e-06
2.97016323669e-06
2.39212719876e-06
1.8115468764e-06
1.22573376253e-06
6.3103592797e-07
1.07658856363e-07
0.000205131628759
0.000207356496056
0.000208699192514
0.00020906312716
0.000208723234371
0.000207944856616
0.000206930365374
0.000205812344821
0.000204668098299
0.000203537850588
0.000202439465845
0.000201378406332
0.000200353822663
0.000199362023662
0.000198398332311
0.000197458006393
0.000196536642514
0.000195630308475
0.000194735541923
0.000193849290295
0.000192968831169
0.000192091692217
0.000191215579155
0.000190338314451
0.000189457786774
0.000188571909864
0.000187678591593
0.000186775706274
0.000185861067786
0.000184932410778
0.000183987372693
0.000183023476214
0.000182038111434
0.000181028516969
0.000179991759165
0.000178924708488
0.000177824012017
0.000176686060647
0.000175506949255
0.000174282427429
0.000173007837617
0.000171678036482
0.000170287294062
0.000168829163967
0.000167296316833
0.00016568032917
0.00016397142214
0.000162158151938
0.000160227068962
0.000158162390893
0.000155945777558
0.000153556348807
0.000150971131173
0.000148166115105
0.000145118002458
0.000141806512898
0.000138216900047
0.000134342314903
0.000130185945167
0.000125763157282
0.000121103635493
0.000116252615153
0.000111269604382
0.000106223402617
0.000101183460047
9.62097002048e-05
9.13456000832e-05
8.66181000545e-05
8.20432143915e-05
7.7632792291e-05
7.33986592768e-05
6.93537964189e-05
6.55116690767e-05
6.18846131716e-05
5.84819055846e-05
5.53080055643e-05
5.23613912596e-05
4.96343413799e-05
4.71137695383e-05
4.47828560053e-05
4.26229720548e-05
4.06154023944e-05
3.87425754774e-05
3.69887468378e-05
3.53402348976e-05
3.37853621746e-05
3.23142411124e-05
3.09185035472e-05
2.95910323417e-05
2.83257234835e-05
2.71172881197e-05
2.59610939219e-05
2.48530407587e-05
2.37894643663e-05
2.27670619941e-05
2.17828348747e-05
2.08340434065e-05
1.99181718631e-05
1.90329002379e-05
1.81760814358e-05
1.73457225014e-05
1.65399689073e-05
1.57570911914e-05