/*--------------------------------*- C++ -*----------------------------------*\
  =========                 |
  \\      /  F ield         | OpenFOAM: The Open Source CFD Toolbox
   \\    /   O peration     | Website:  https://openfoam.org
    \\  /    A nd           | Version:  7
     \\/     M anipulation  |
\*---------------------------------------------------------------------------*/
FoamFile
{
    version     2.0;
    format      ascii;
    class       surfaceScalarField;
    location    "2640";
    object      phi;
}
// * * * * * * * * * * * * * * * * * * * * * * * * * * * * * * * * * * * * * //

dimensions      [0 3 -1 0 0 0 0];

internalField   nonuniform List<scalar> 
16192
(
6.92935936495e-10
2.44564063505e-10
4.93589591591e-10
1.99346342379e-10
3.64853025708e-10
1.28736563218e-10
2.82254608599e-10
8.25984143519e-11
2.27599188106e-10
5.46554175059e-11
1.89945266865e-10
3.76539181159e-11
1.6295214512e-10
2.69931185587e-11
1.42908650403e-10
2.00434915218e-11
1.27581554787e-10
1.53270924331e-11
1.15579121155e-10
1.20024304872e-11
1.06001344932e-10
9.57777311917e-12
9.82449138674e-11
7.75642802165e-12
9.18917485546e-11
6.35316232554e-12
8.66434124069e-11
5.24833323551e-12
8.22812907068e-11
4.36211885715e-12
7.8641647708e-11
3.63964024775e-12
7.55995260002e-11
3.04211904296e-12
7.30580565159e-11
2.54146693301e-12
7.09411740419e-11
2.11688003072e-12
6.91885348478e-11
1.75263689089e-12
6.77518941723e-11
1.43663850715e-12
6.65924747085e-11
1.15941746703e-12
6.56790220688e-11
9.13450809877e-13
6.4986346489e-11
6.92673958935e-13
6.44942146121e-11
4.92130461202e-13
6.41864981193e-11
3.07715329492e-13
6.40505132088e-11
1.35983996826e-13
6.40765043768e-11
-2.59917787625e-14
6.42572378393e-11
-1.80733772366e-13
6.45876789771e-11
-3.30441087392e-13
6.50647348464e-11
-4.77055459958e-13
6.56870474551e-11
-6.22311775111e-13
6.6454824589e-11
-7.67775877311e-13
6.73696979265e-11
-9.14871586874e-13
6.84345982087e-11
-1.06489804019e-12
6.96536385224e-11
-1.2190375044e-12
7.10319952908e-11
-1.37835339813e-12
7.25757767781e-11
-1.54377747771e-12
7.42918663048e-11
-1.71608489086e-12
7.6187726809e-11
-1.89585516543e-12
7.82711500428e-11
-2.08341721723e-12
8.05499330482e-11
-2.27877624111e-12
8.30314616305e-11
-2.48152111444e-12
8.57221816836e-11
-2.69071182528e-12
8.86269394534e-11
-2.90474885262e-12
9.17481785314e-11
-3.12122943467e-12
9.50849894665e-11
-3.33680066827e-12
9.8632025343e-11
-3.54702497274e-12
1.02378317187e-10
-3.74628044027e-12
1.06306053454e-10
-3.92772437329e-12
1.10389418209e-10
-4.08335254227e-12
1.14593616288e-10
-4.20418558054e-12
1.18874235961e-10
-4.28060709499e-12
1.23177111499e-10
-4.30286294071e-12
1.2743883438e-10
-4.26171051527e-12
1.31588028339e-10
-4.1491819202e-12
1.35547440692e-10
-3.95940094442e-12
1.39236822946e-10
-3.68937161367e-12
1.42576471305e-10
-3.33963884031e-12
1.45491188964e-10
-2.91470943119e-12
1.47914318993e-10
-2.42312346997e-12
1.49791415515e-10
-1.87709179674e-12
1.51083096775e-10
-1.29167871934e-12
1.51766702757e-10
-6.83605715978e-13
1.51836560142e-10
-6.98596421169e-14
1.51302916557e-10
5.33638860468e-13
1.50189865199e-10
1.11304408485e-12
1.48532739662e-10
1.65711594654e-12
1.46375452587e-10
2.15727524883e-12
1.43768139135e-10
2.60729975131e-12
1.40765264363e-10
3.0028593756e-12
1.37424167402e-10
3.34108028206e-12
1.33803892423e-10
3.62025721903e-12
1.29964127061e-10
3.83974692008e-12
1.25964105146e-10
4.00000296782e-12
1.21861412868e-10
4.10267318263e-12
1.17710720817e-10
4.15067293701e-12
1.13562534391e-10
4.14816758876e-12
1.09462084717e-10
4.10043119095e-12
1.05448479542e-10
4.01358727176e-12
1.01554194684e-10
3.89426755316e-12
9.78049368983e-11
3.749241242e-12
9.42198538955e-11
3.58506718814e-12
9.08120294428e-11
3.40780947642e-12
8.75891770602e-11
3.22283817818e-12
8.45544443646e-11
3.03471933573e-12
8.17072477103e-11
2.84718405146e-12
7.90440766577e-11
2.66315925676e-12
7.6559225573e-11
2.48483999861e-12
7.4245430157e-11
2.31378507695e-12
7.20943993867e-11
2.15102107829e-12
7.00972458686e-11
1.99714450407e-12
6.82448222115e-11
1.85241522236e-12
6.65279763654e-11
1.71683801922e-12
6.49377381283e-11
1.59023092262e-12
6.34654505305e-11
1.47228082328e-12
6.21028568073e-11
1.36258739758e-12
6.08421538691e-11
1.26069708919e-12
5.96760197597e-11
1.16612864974e-12
5.85976227129e-11
1.07839200519e-12
5.76006163033e-11
9.97001702522e-13
5.66791256377e-11
9.21486323069e-13
5.58277268688e-11
8.51394710937e-13
5.50414231195e-11
7.86300007228e-13
5.43156176215e-11
7.25801995762e-13
5.36460859314e-11
6.69528460465e-13
5.30289470652e-11
6.1713583661e-13
5.24606345824e-11
5.6830968832e-13
5.19378667631e-11
5.22765190571e-13
5.14576162385e-11
4.80248099072e-13
5.10170775469e-11
4.40536403565e-13
5.06136322025e-11
4.03443233728e-13
5.02448088145e-11
3.68821392568e-13
4.99082365901e-11
3.36570386832e-13
4.96015880379e-11
3.06646813991e-13
4.93225067048e-11
2.79079740136e-13
4.90685120483e-11
2.53993154688e-13
4.88368715521e-11
2.31639135628e-13
4.86244231282e-11
2.12447156419e-13
4.84273231309e-11
1.97098879923e-13
4.82406783874e-11
1.86643736208e-13
4.80579961043e-11
1.82681450707e-13
4.78703418098e-11
1.87653601103e-13
4.76650385461e-11
2.05302767513e-13
4.74237072526e-11
2.41330934766e-13
4.71197735677e-11
3.03933492404e-13
4.67176878214e-11
4.02085757945e-13
5.15858478294e-13
9.53422075166e-10
2.28641986169e-10
8.59656529261e-10
2.93111882969e-10
7.45077587219e-10
2.43315499671e-10
6.41827449434e-10
1.85848546165e-10
5.56535674847e-10
1.39947185782e-10
4.88004077347e-10
1.06185509143e-10
4.33214869598e-10
8.17823197806e-11
3.89218969876e-10
6.40393847292e-11
3.5360565759e-10
5.09403982519e-11
3.24520350973e-10
4.1087730715e-11
3.00564822009e-10
3.35332957861e-11
2.80687529356e-10
2.76337144913e-11
2.64093013698e-10
2.29476719214e-11
2.50173684679e-10
1.91676563343e-11
2.38460278853e-10
1.60755189149e-11
2.28586302213e-10
1.35136112975e-11
2.20262509461e-10
1.1365906394e-11
2.13258472764e-10
9.54549845004e-12
2.07389143772e-10
7.98620407791e-12
2.02504947562e-10
6.63682842856e-12
1.98484394833e-10
5.45718685446e-12
1.95228508351e-10
4.41529990032e-12
1.92656570966e-10
3.48538450213e-12
1.90702847998e-10
2.64639363859e-12
1.89314036077e-10
1.88093952389e-12
1.8844726009e-10
1.1744889459e-12
1.88068487536e-10
5.14754698816e-13
1.88151263985e-10
-1.0876949649e-13
1.88675696355e-10
-7.05166793961e-13
1.8962762795e-10
-1.28237264397e-12
1.90997962484e-10
-1.847389226e-12
1.92782102189e-10
-2.4064499032e-12
1.94979469431e-10
-2.96514069336e-12
1.97593085801e-10
-3.52848459479e-12
2.00629183719e-10
-4.10099161895e-12
2.04096826909e-10
-4.68667529042e-12
2.08007514388e-10
-5.28903437127e-12
2.12374741766e-10
-5.91099716294e-12
2.17213490083e-10
-6.55482430113e-12
2.22539610384e-10
-7.22196527392e-12
2.28369068143e-10
-7.91286349177e-12
2.34717010446e-10
-8.62670571633e-12
2.4159661723e-10
-9.36111375651e-12
2.49017701881e-10
-1.01117810006e-11
2.56985033193e-10
-1.08720634296e-11
2.65496367445e-10
-1.16325457157e-11
2.74540202998e-10
-1.23806171381e-11
2.84093307856e-10
-1.31001097081e-11
2.94118117577e-10
-1.37710691732e-11
3.04560160853e-10
-1.43697459182e-11
3.15345731318e-10
-1.48689007632e-11
3.26380083499e-10
-1.52385151782e-11
3.37546468913e-10
-1.54469698849e-11
3.48706337785e-10
-1.54627093907e-11
3.59700993879e-10
-1.52563447752e-11
3.70354905929e-10
-1.48030730601e-11
3.80480742752e-10
-1.40852182647e-11
3.89886025681e-10
-1.30946368773e-11
3.98381084623e-10
-1.18346825186e-11
4.05787787329e-10
-1.0321399753e-11
4.1194830505e-10
-8.5836322609e-12
4.16733037518e-10
-6.66181921435e-12
4.20046800762e-10
-4.60544124836e-12
4.21832547662e-10
-2.46935646515e-12
4.22072245067e-10
-3.09565648867e-13
4.20785016949e-10
1.82085371336e-12
4.18023142657e-10
3.87490059708e-12
4.13866800852e-10
5.81343586562e-12
4.08418466667e-10
7.60558385752e-12
4.01797670638e-10
9.22806711459e-12
3.9413647721e-10
1.06640215785e-11
3.85575701798e-10
1.19018225523e-11
3.7626165692e-10
1.29342675523e-11
3.66343145226e-10
1.37582232533e-11
3.55968468944e-10
1.4374643505e-11
3.45282358037e-10
1.47887484503e-11
3.34422866188e-10
1.50101295757e-11
3.23518405453e-10
1.50525939127e-11
3.12685148035e-10
1.49336552034e-11
3.02025017283e-10
1.46736858707e-11
2.91624422614e-10
1.42948314154e-11
2.81553797988e-10
1.38198365479e-11
2.71867901584e-10
1.3270935762e-11
2.62606756572e-10
1.26689282108e-11
2.53797064021e-10
1.20325059465e-11
2.45453907715e-10
1.13778523681e-11
2.37582582711e-10
1.0718487202e-11
2.30180411903e-10
1.00653096177e-11
2.23238450495e-10
9.42678226242e-12
2.16743016503e-10
8.80920120369e-12
2.10677014866e-10
8.2170060207e-12
2.05021048153e-10
7.65309566849e-12
1.99754321613e-10
7.11912725403e-12
1.94855361913e-10
6.61578422476e-12
1.90302572346e-10
6.14300791219e-12
1.86074650282e-10
5.7001912028e-12
1.82150890358e-10
5.2863364392e-12
1.7851139615e-10
4.90018119573e-12
1.75137218903e-10
4.54029649156e-12
1.72010440264e-10
4.20516191911e-12
1.69114211768e-10
3.89322207354e-12
1.66432762528e-10
3.60292802511e-12
1.63951382983e-10
3.33276723102e-12
1.61656391887e-10
3.0812845836e-12
1.59535090793e-10
2.84709700626e-12
1.5757571017e-10
2.62890343137e-12
1.55767348861e-10
2.4254918625e-12
1.54099908827e-10
2.23574480853e-12
1.52564025003e-10
2.05864441252e-12
1.51150990468e-10
1.89327834923e-12
1.49852675081e-10
1.73884777263e-12
1.48661436045e-10
1.59467852923e-12
1.4757001666e-10
1.46023726989e-12
1.46571429513e-10
1.33515427559e-12
1.45658817739e-10
1.21925554206e-12
1.44825287423e-10
1.11260724841e-12
1.44063701005e-10
1.01557697342e-12
1.43366420569e-10
9.2891721854e-13
1.4272498695e-10
8.53878651543e-13
1.42129722133e-10
7.92361852394e-13
1.41569247853e-10
7.47116448826e-13
1.41029938431e-10
7.21989639267e-13
1.40495393722e-10
7.22197413131e-13
1.39946203483e-10
7.54492504767e-13
1.39360759822e-10
8.26774484666e-13
1.3871907091e-10
9.45622585974e-13
1.38015372398e-10
1.10578452869e-12
1.2520598363e-12
9.76224154424e-10
1.89917829083e-10
9.62941552774e-10
3.06394478235e-10
9.05943042445e-10
3.0031400349e-10
8.33387353359e-10
2.58404228678e-10
7.60271859512e-10
2.13062672841e-10
6.93013994408e-10
1.73443367342e-10
6.3369159067e-10
1.41104716571e-10
5.82415752018e-10
1.15315216449e-10
5.38508977315e-10
9.48471660573e-11
5.01054062429e-10
7.85426387721e-11
4.69132588363e-10
6.54547630951e-11
4.41916722517e-10
5.48495736795e-11
4.18694721284e-10
4.61696665944e-11
3.98868447013e-10
3.89939241722e-11
3.81940610602e-10
3.30033490172e-11
3.67499582674e-10
2.79546330773e-11
3.55204988828e-10
2.36604942493e-11
3.4477519711e-10
1.99752843778e-11
3.35976889748e-10
1.67845058494e-11
3.28616549394e-10
1.39971634393e-11
3.22533575902e-10
1.15401552508e-11
3.17594742382e-10
9.35412862703e-12
3.13689730595e-10
7.39039180169e-12
3.10727529081e-10
5.60859103047e-12
3.08633517949e-10
3.97494690569e-12
3.07347100488e-10
2.46090309925e-12
3.06819769939e-10
1.04208238745e-12
3.07013523359e-10
-3.02525250207e-13
3.07899550529e-10
-1.59119576008e-12
3.09457140425e-10
-2.83996371233e-12
3.11672758935e-10
-4.06300827126e-12
3.14539256822e-10
-5.27294759459e-12
3.1805517115e-10
-6.48105407917e-12
3.22224087419e-10
-7.69739907154e-12
3.27054029819e-10
-8.93093136474e-12
3.32556847951e-10
-1.01894897947e-11
3.38747565748e-10
-1.14797475606e-11
3.45643657281e-10
-1.28070829962e-11
3.5326420976e-10
-1.41753699921e-11
3.61628932279e-10
-1.55866798095e-11
3.70756964652e-10
-1.70408867105e-11
3.80665440984e-10
-1.85351716313e-11
3.91367762574e-10
-2.00634237238e-11
4.02871542684e-10
-2.16155482165e-11
4.151761971e-10
-2.31767037807e-11
4.28270178961e-10
-2.47265123112e-11
4.42127889144e-10
-2.62383110054e-11
4.56706344138e-10
-2.76785473468e-11
4.71941743897e-10
-2.90064507435e-11
4.87746158079e-10
-3.01741411299e-11
5.04004624513e-10
-3.11273477057e-11
5.20573025597e-10
-3.18068963496e-11
5.3727715091e-10
-3.21510751923e-11
5.53913359451e-10
-3.20988979981e-11
5.70251197931e-10
-3.15941638084e-11
5.86038215849e-10
-3.0590072266e-11
6.01007036505e-10
-2.9054021465e-11
6.14884518198e-10
-2.69721027062e-11
6.27402576272e-10
-2.43527269261e-11
6.38309966106e-10
-2.12287785018e-11
6.47384069979e-10
-1.76577282531e-11
6.54441555531e-10
-1.37193004235e-11
6.5934674668e-10
-9.51063210626e-12
6.62016755875e-10
-5.13936956415e-12
6.62422875553e-10
-7.15693681387e-13
6.60588351044e-10
3.65536558221e-12
6.56583276796e-10
7.87995798856e-12
6.50517754779e-10
1.18789372806e-11
6.42534485114e-10
1.55888294969e-11
6.32801701094e-10
1.89608243318e-11
6.21506914677e-10
2.19587788433e-11
6.08851515206e-10
2.45571911951e-11
5.95045983626e-10
2.67397670421e-11
5.80305398975e-10
2.84987751628e-11
5.64844978781e-10
2.9835030647e-11
5.48875557284e-10
3.07581370975e-11
5.32599082873e-10
3.12865715822e-11
5.16204362631e-10
3.14472825932e-11
4.99863348874e-10
3.12746383758e-11
4.83728250542e-10
3.08087548721e-11
4.67929664175e-10
3.00933897362e-11
4.52575797337e-10
2.91736767921e-11
4.37752727287e-10
2.80939806201e-11
4.2352553875e-10
2.689609305e-11
4.09940122043e-10
2.56179003418e-11
3.97025397358e-10
2.42925561751e-11
3.8479574467e-10
2.2948120311e-11
3.73253458264e-10
2.16075777635e-11
3.62391088766e-10
2.02891346754e-11
3.52193583623e-10
1.90066904486e-11
3.42640174656e-10
1.77704001329e-11
3.33705994719e-10
1.65872618028e-11
3.25363425826e-10
1.54616832615e-11
3.1758319768e-10
1.43960004104e-11
3.10335261782e-10
1.33909326491e-11
3.03589471726e-10
1.24459709109e-11
2.97316098753e-10
1.15596997565e-11
2.91486211787e-10
1.07300592154e-11
2.86071946526e-10
9.95455340445e-12
2.81046686654e-10
9.23041405965e-12
2.76385175083e-10
8.5547264245e-12
2.72063571605e-10
7.92452481778e-12
2.68059468696e-10
7.33686388863e-12
2.64351876293e-10
6.78887119714e-12
2.6092118242e-10
6.27778545456e-12
2.57749096295e-10
5.80098452696e-12
2.54818577204e-10
5.35600623148e-12
2.52113752655e-10
4.940564975e-12
2.49619826456e-10
4.55256648472e-12
2.4732297781e-10
4.19012316425e-12
2.45210249888e-10
3.85157207816e-12
2.43269426953e-10
3.53549810801e-12
2.41488896502e-10
3.24076455201e-12
2.39857493625e-10
2.96655421905e-12
2.38364322399e-10
2.71242400552e-12
2.36998550285e-10
2.47837682512e-12
2.35749170328e-10
2.26495456341e-12
2.34604729516e-10
2.07335590043e-12
2.33553025582e-10
1.90558064779e-12
2.32580788275e-10
1.7645974954e-12
2.31673384995e-10
1.65451830638e-12
2.30814643136e-10
1.58073040309e-12
2.29986978716e-10
1.54986102461e-12
2.29172208485e-10
1.56926227973e-12
2.28353740982e-10
1.64524193495e-12
2.27521333524e-10
1.77803033907e-12
2.26678753449e-10
1.94836506077e-12
2.08536337286e-12
9.71734044994e-10
1.55683781191e-10
9.8653343621e-10
2.91595079894e-10
9.67826737535e-10
3.19020695159e-10
9.27231689305e-10
2.98999269663e-10
8.76608300755e-10
2.63686053863e-10
8.23486791772e-10
2.26564868657e-10
7.72025764926e-10
1.92565735699e-10
7.24266413595e-10
1.6307456006e-10
6.81029237829e-10
1.38084334128e-10
6.42470494605e-10
1.17101374345e-10
6.08407900609e-10
9.95173494937e-11
5.78504415775e-10
8.47530509862e-11
5.52368577559e-10
7.23054973593e-11
5.29607056799e-10
6.17554375729e-11
5.09850423146e-10
5.27599754118e-11
4.92764211579e-10
4.50408375053e-11
4.7805215346e-10
3.83725453595e-11
4.6545541723e-10
3.25720137501e-11
4.54749980483e-10
2.74899359033e-11
4.45743280288e-10
2.30038571306e-11
4.3827074136e-10
1.90126878795e-11
4.32192478223e-10
1.54323856981e-11
4.27390301173e-10
1.21925630365e-11
4.23765067416e-10
9.23381925655e-12
4.21234372849e-10
6.50563624687e-12
4.19730558375e-10
3.96471269088e-12
4.19198995159e-10
1.57364108889e-12
4.19596611021e-10
-7.00145214091e-13
4.20890618778e-10
-2.88520717728e-12
4.23057411907e-10
-5.0067600091e-12
4.26081595594e-10
-7.08719460097e-12
4.29955119239e-10
-9.14647329845e-12
4.34676478831e-10
-1.12024151084e-11
4.40249958147e-10
-1.32708791381e-11
4.46684876377e-10
-1.5365849616e-11
4.53994808632e-10
-1.74994212727e-11
4.62196742815e-10
-1.96816801215e-11
4.7131013384e-10
-2.19204714824e-11
4.81355812294e-10
-2.42210449446e-11
4.92354702013e-10
-2.65855649962e-11
5.04326298175e-10
-2.90124772717e-11
5.17286857728e-10
-3.14957244572e-11
5.31247256379e-10
-3.40238145047e-11
5.46210475346e-10
-3.65787581321e-11
5.62168696415e-10
-3.91349146312e-11
5.79100011087e-10
-4.16578155923e-11
5.96964788459e-10
-4.41030758679e-11
6.15701802207e-10
-4.64155475009e-11
6.35224286559e-10
-4.85289205153e-11
6.55416175006e-10
-5.03660140907e-11
6.76128862338e-10
-5.18400187905e-11
6.97178910493e-10
-5.28569276313e-11
7.18347168965e-10
-5.33193163732e-11
7.39379783651e-10
-5.31314951856e-11
7.59991502511e-10
-5.22058652622e-11
7.79871548428e-10
-5.04701011818e-11
7.98692121e-10
-4.78745778568e-11
8.16119329706e-10
-4.43992964817e-11
8.31826065249e-10
-4.00594493075e-11
8.45506006325e-10
-3.49087086935e-11
8.56887659983e-10
-2.90393738533e-11
8.65747109346e-10
-2.25787450354e-11
8.71918085396e-10
-1.56816071587e-11
8.75298196648e-10
-8.51948386283e-12
8.75850679054e-10
-1.26818335196e-12
8.73601788472e-10
5.90424472126e-12
8.68634733095e-10
1.28469979249e-11
8.61081538253e-10
1.94321130528e-11
8.51114272375e-10
2.55560731171e-11
8.38936713737e-10
3.11383580727e-11
8.24776975724e-10
3.61184898504e-11
8.08881094317e-10
4.04530440511e-11
7.91507268309e-10
4.41135634482e-11
7.72920364665e-10
4.70856486511e-11
7.53386401413e-10
4.93689635953e-11
7.3316692003e-10
5.09775884326e-11
7.12513372761e-10
5.19400893642e-11
6.91661816891e-10
5.22988098311e-11
6.70828282147e-10
5.21081455363e-11
6.50205152143e-10
5.14318585235e-11
6.29958790407e-10
5.03397264312e-11
6.1022848948e-10
4.89039540725e-11
5.91126667892e-10
4.71957799506e-11
5.72740122771e-10
4.52826173142e-11
5.55132077498e-10
4.32259261007e-11
5.38344747607e-10
4.10798678648e-11
5.22402168386e-10
3.88906825597e-11
5.07313072868e-10
3.66966574896e-11
4.93073661263e-10
3.45285315764e-11
4.79670155843e-10
3.24101822021e-11
4.67081079331e-10
3.03594639276e-11
4.55279230993e-10
2.83890983227e-11
4.44233359325e-10
2.6507543932e-11
4.3390954791e-10
2.47198016072e-11
4.24272340271e-10
2.30281307759e-11
4.15285635111e-10
2.14326672322e-11
4.06913383791e-10
1.99319428465e-11
3.99120121534e-10
1.85233138231e-11
3.91871360569e-10
1.72033072437e-11
3.85133870935e-10
1.5967897069e-11
3.78875870487e-10
1.48127206952e-11
3.73067142942e-10
1.37332466156e-11
3.67679098894e-10
1.27249025717e-11
3.62684792563e-10
1.17831725296e-11
3.58058903796e-10
1.09036695469e-11
3.53777693294e-10
1.00821906672e-11
3.49818936464e-10
9.3147589717e-12
3.4616184031e-10
8.59765730588e-12
3.42786945659e-10
7.92745754262e-12
3.39676016493e-10
7.30104896641e-12
3.36811916371e-10
6.71566903374e-12
3.34178471744e-10
6.16893976909e-12
3.31760320548e-10
5.65891295741e-12
3.29542744734e-10
5.1841274243e-12
3.27511484746e-10
4.74368155036e-12
3.2565253539e-10
4.33732391468e-12
3.2395192404e-10
3.96556381619e-12
3.22395477064e-10
3.62980097209e-12
3.20968587949e-10
3.33246805473e-12
3.19656015691e-10
3.07716828157e-12
3.18441766132e-10
2.86876665332e-12
3.17309150035e-10
2.71334560123e-12
3.16241173514e-10
2.61783698649e-12
3.15221500235e-10
2.5889353651e-12
3.14236289643e-10
2.63045266607e-12
3.13276977653e-10
2.73734272331e-12
3.12342304236e-10
2.88303896657e-12
2.99735606929e-12
9.63898958177e-10
1.29284819204e-10
9.87519549636e-10
2.6797448022e-10
9.89389590401e-10
3.17150646258e-10
9.7159799102e-10
3.16790860949e-10
9.41093812149e-10
2.94190224449e-10
9.03926329148e-10
2.63732343258e-10
8.64293231081e-10
2.32198825321e-10
8.2484438982e-10
2.02523392871e-10
7.87138274999e-10
1.75790440514e-10
7.52015497148e-10
1.52224143796e-10
7.19863409992e-10
1.31669428292e-10
6.90792952023e-10
1.13823500652e-10
6.64753231116e-10
9.83452100232e-11
6.41604227187e-10
8.49044333328e-11
6.21162081316e-10
7.32021131956e-11
6.03226739824e-10
6.29761710086e-11
5.87598378174e-10
5.40008991289e-11
5.74086766414e-10
4.60836177556e-11
5.62516245181e-10
3.90604495204e-11
5.52728011789e-10
3.27920830657e-11
5.44580791729e-10
2.71599006548e-11
5.37950571657e-10
2.20625986832e-11
5.3272981522e-10
1.74133125986e-11
5.28826421351e-10
1.31372064915e-11
5.2616258173e-10
9.16946949247e-12
5.24673629176e-10
5.45365916259e-12
5.24306927264e-10
1.9403372324e-12
5.25020825631e-10
-1.41404899792e-12
5.2678368544e-10
-4.64807202401e-12
5.29572975544e-10
-7.79605472637e-12
5.33374429201e-10
-1.08886524176e-11
5.38181243126e-10
-1.39532908758e-11
5.4399329927e-10
-1.70144743597e-11
5.50816386189e-10
-2.00939685583e-11
5.58661392996e-10
-2.32108582765e-11
5.67543445609e-10
-2.6381475021e-11
5.77480950846e-10
-2.96191857275e-11
5.88494510357e-10
-3.29340305195e-11
6.00605662077e-10
-3.63321952967e-11
6.13835403857e-10
-3.98153044366e-11
6.28202451176e-10
-4.33795212298e-11
6.4372118104e-10
-4.70144498679e-11
6.60399217048e-10
-5.07018449322e-11
6.78234619767e-10
-5.44141540882e-11
6.9721266269e-10
-5.81129496005e-11
7.17302201902e-10
-6.17473456343e-11
7.3845168825e-10
-6.52525518593e-11
7.60584929007e-10
-6.85487767279e-11
7.83596780598e-10
-7.15407594772e-11
8.07349044982e-10
-7.41182648026e-11
8.31666939841e-10
-7.61578990601e-11
8.56336604713e-10
-7.75265771077e-11
8.81104167316e-10
-7.80868629672e-11
9.05676903661e-10
-7.77042150968e-11
9.29726957255e-10
-7.62559022891e-11
9.52897930183e-10
-7.36410577135e-11
9.74814427822e-10
-6.97910596952e-11
9.95094353967e-10
-6.46792078588e-11
1.01336343189e-09
-5.83285140455e-11
1.0292710839e-09
-5.0816349636e-11
1.04250645168e-09
-4.22747332793e-11
1.05281304456e-09
-3.28853327889e-11
1.06000038185e-09
-2.28689430412e-11
1.06395120032e-09
-1.24703049706e-11
1.06462340903e-09
-1.9403989245e-12
1.06204691025e-09
8.48073245642e-12
1.05631638985e-09
1.85775032832e-11
1.04758180898e-09
2.816667531e-11
1.03603835482e-09
3.7099505542e-11
1.02191711295e-09
4.52595756618e-11
1.00547698474e-09
5.25585917735e-11
9.86997741214e-10
5.89322598556e-11
9.66773760868e-10
6.43375151289e-11
9.45107951759e-10
6.87514286384e-11
9.22305516614e-10
7.2171369558e-11
8.98667478626e-10
7.4615597572e-11
8.74484147813e-10
7.61233919573e-11
8.50028903369e-10
7.67540269711e-11
8.25552748048e-10
7.65842746555e-11
8.01280048267e-10
7.57045333747e-11
7.77405730927e-10
7.42140201895e-11
7.5409401869e-10
7.22156441406e-11
7.31478602288e-10
6.98111755863e-11
7.09664014187e-10
6.70971860451e-11
6.88727896445e-10
6.41620258062e-11
6.68723844576e-10
6.10839029827e-11
6.49684539726e-10
5.79299718562e-11
6.31624936358e-10
5.47562464416e-11
6.14545333571e-10
5.16081209889e-11
5.98434216518e-10
4.85212868608e-11
5.83270802279e-10
4.55228666634e-11
5.69027262401e-10
4.26326275349e-11
5.55670620378e-10
3.98641760458e-11
5.43164340392e-10
3.72260723975e-11
5.31469633489e-10
3.47228291283e-11
5.20546513033e-10
3.23557797449e-11
5.1035463228e-10
3.01238162051e-11
5.00853936489e-10
2.80240027414e-11
4.92005159226e-10
2.60520781016e-11
4.83770189901e-10
2.42028604358e-11
4.76112335715e-10
2.24705693211e-11
4.68996498313e-10
2.08490788377e-11
4.62389281741e-10
1.9332114303e-11
4.56259045837e-10
1.79134039169e-11
4.50575916132e-10
1.65867950206e-11
4.45311759446e-10
1.53463433974e-11
4.40440131946e-10
1.41863827554e-11
4.35936205145e-10
1.31015806242e-11
4.31776673407e-10
1.20869860012e-11
4.27939645728e-10
1.11380735655e-11
4.24404523128e-10
1.02507887284e-11
4.21151862614e-10
9.42159755425e-12
4.18163227788e-10
8.64754521011e-12
4.15421026442e-10
7.92632635858e-12
4.12908335492e-10
7.25637023597e-12
4.10608715195e-10
6.63694211016e-12
4.08506016598e-10
6.06826046526e-12
4.06584190806e-10
5.55162499433e-12
4.0482711512e-10
5.08954215622e-12
4.03218462265e-10
4.68581977808e-12
4.01741654296e-10
4.34557351567e-12
4.00379964412e-10
4.07503469175e-12
3.99116852521e-10
3.8809484386e-12
3.97936626732e-10
3.76916111403e-12
3.96825434695e-10
3.74164502786e-12
3.9577213852e-10
3.79063940349e-12
3.94766993048e-10
3.88818495182e-12
3.97139310267e-12
9.5749129054e-10
1.09293524678e-10
9.82335927995e-10
2.43129834148e-10
9.94588037745e-10
3.04898528131e-10
9.91514160674e-10
3.19864729428e-10
9.76269602942e-10
3.09434773307e-10
9.52963905868e-10
2.87038031322e-10
9.25055192073e-10
2.60107530059e-10
8.95081767445e-10
2.32496808439e-10
8.64785354035e-10
2.06086844879e-10
8.35304145926e-10
1.81705342888e-10
8.07344895806e-10
1.59628669428e-10
7.81315986417e-10
1.39852401098e-10
7.57424542356e-10
1.22236645188e-10
7.35745241395e-10
1.06583725455e-10
7.16268203019e-10
9.26791427975e-11
6.9893187624e-10
8.03124890917e-11
6.83645358508e-10
6.92874082513e-11
6.70303351648e-10
5.94256161092e-11
6.58796030416e-10
5.05677623591e-11
6.49015420454e-10
4.25726847654e-11
6.40859397311e-10
3.53159156788e-11
6.34234076302e-10
2.86879117376e-11
6.29055123601e-10
2.25922575234e-11
6.25248352518e-10
1.69439700002e-11
6.22749853123e-10
1.16679615324e-11
6.21505823232e-10
6.69768194719e-12
6.21472212825e-10
1.97394080016e-12
6.2261425545e-10
-2.55609815884e-12
6.24905927926e-10
-6.93975070815e-12
6.28329373071e-10
-1.12195057112e-11
6.32874294437e-10
-1.54335792242e-11
6.38537323019e-10
-1.96163244484e-11
6.45321350019e-10
-2.37985058617e-11
6.5323481274e-10
-2.8007435234e-11
6.6229091441e-10
-3.22669633057e-11
6.7250675352e-10
-3.65973168231e-11
6.83902332837e-10
-4.10147670127e-11
6.96499413564e-10
-4.55311124097e-11
7.10320175172e-10
-5.01529571958e-11
7.25385637653e-10
-5.48807662482e-11
7.41713799742e-10
-5.97076816212e-11
7.59317446042e-10
-6.46180933543e-11
7.78201578093e-10
-6.95859729927e-11
7.98360432324e-10
-7.45730030785e-11
8.1977406271e-10
-7.95265734579e-11
8.42404492256e-10
-8.43777673209e-11
8.6619147745e-10
-8.90395278619e-11
8.91047988466e-10
-9.34052772212e-11
9.16855586231e-10
-9.73483454333e-11
9.43459976052e-10
-1.00722641579e-10
9.70667128468e-10
-1.03365037297e-10
9.98240467385e-10
-1.05099900819e-10
1.02589970706e-09
-1.05746086577e-10
1.05332194284e-09
-1.05126434167e-10
1.08014553558e-09
-1.0307947794e-10
1.10597716453e-09
-9.94726695265e-11
1.13040217015e-09
-9.42160485836e-11
1.15299799794e-09
-8.72750198148e-11
1.17335021055e-09
-7.86807123183e-11
1.19107016034e-09
-6.8536287212e-11
1.20581300124e-09
-5.70175647481e-11
1.21729432166e-09
-4.43666471983e-11
1.22530345326e-09
-3.08780725794e-11
1.22971167476e-09
-1.68785287733e-11
1.23047423753e-09
-2.70296853105e-12
1.22762631867e-09
1.13286399823e-11
1.22127429552e-09
2.49295108882e-11
1.21158455764e-09
3.78563938905e-11
1.19877206987e-09
4.99119708469e-11
1.18309017122e-09
6.09414493162e-11
1.16482208936e-09
7.08266467088e-11
1.1442738576e-09
7.94804633681e-11
1.12176795198e-09
8.68433917e-11
1.09763697801e-09
9.28823732376e-11
1.0722169834e-09
9.75913348944e-11
1.04584031649e-09
1.00992235668e-10
1.01882827952e-09
1.03135400892e-10
9.91484061311e-10
1.04098218193e-10
9.64086523854e-10
1.03981786364e-10
9.36885351036e-10
1.02905681838e-10
9.10097880395e-10
1.01001467941e-10
8.83907699514e-10
9.84058036435e-11
8.58464867522e-10
9.52539876914e-11
8.33887468942e-10
9.16745662039e-11
8.10264135408e-10
8.77853423076e-11
7.87657170801e-10
8.36908518817e-11
7.66105961385e-10
7.94811667884e-11
7.4563042143e-10
7.52317730581e-11
7.26234296231e-10
7.10042338915e-11
7.07908208803e-10
6.68473629587e-11
6.90632387548e-10
6.27986774602e-11
6.74379050601e-10
5.88859548307e-11
6.59114448457e-10
5.51287692614e-11
6.44800583575e-10
5.15399290232e-11
6.31396634886e-10
4.81267701644e-11
6.18860120037e-10
4.48922875025e-11
6.07147828954e-10
4.18361007017e-11
5.96216561546e-10
3.89552640359e-11
5.86023699697e-10
3.62449342615e-11
5.76527640941e-10
3.36989139022e-11
5.6768811761e-10
3.13100877195e-11
5.59466422252e-10
2.90707696001e-11
5.51825556683e-10
2.69729755755e-11
5.44730319469e-10
2.50086371188e-11
5.38147343749e-10
2.31697669808e-11
5.32045095343e-10
2.14485882808e-11
5.26393838826e-10
1.98376359596e-11
5.21165577803e-10
1.83298385354e-11
5.16333973936e-10
1.69185869328e-11
5.11874248329e-10
1.55977964076e-11
5.07763067657e-10
1.43619667874e-11
5.03978416968e-10
1.32062457797e-11
5.0049946043e-10
1.21264994211e-11
4.97306391428e-10
1.11193931726e-11
4.94380273583e-10
1.01824860238e-11
4.91702875445e-10
9.31433833153e-12
4.89256503197e-10
8.51463093653e-12
4.87023838827e-10
7.78428774712e-12
4.84987795287e-10
7.12558424915e-12
4.83131406253e-10
6.54220757184e-12
4.81437774853e-10
6.03920391372e-12
4.79890111772e-10
5.62269706539e-12
4.78471889223e-10
5.29917061703e-12
4.77167098605e-10
5.0739517398e-12
4.75960449979e-10
4.94829402327e-12
4.74836893807e-10
4.91419612474e-12
4.73778801319e-10
4.94627797255e-12
4.99208536156e-12
9.52859529504e-10
9.39339905707e-11
9.76232702918e-10
2.19756651456e-10
9.93283096105e-10
2.87848125817e-10
9.99311360111e-10
3.13836456366e-10
9.94956408977e-10
3.13789715202e-10
9.82634961397e-10
2.99359469559e-10
9.6489390152e-10
2.7784858056e-10
9.43868489612e-10
2.53522210972e-10
9.21190923781e-10
2.28764401353e-10
8.98047572202e-10
2.04848685137e-10
8.75269982397e-10
1.82406249935e-10
8.53421090182e-10
1.61701284051e-10
8.32866267639e-10
1.42791458512e-10
8.13828570005e-10
1.25621413918e-10
7.96430447846e-10
1.10077255842e-10
7.80724697377e-10
9.60182305135e-11
7.66717152749e-10
8.32949439091e-11
7.54383164692e-10
7.17595952853e-11
7.43679460261e-10
6.12714580111e-11
7.34552597887e-10
5.1699538476e-11
7.26944928757e-10
4.29235762754e-11
7.20798741554e-10
3.48340905512e-11
7.16059090121e-10
2.73319007306e-11
7.12675670544e-10
2.03273815318e-11
7.10604015067e-10
1.37396091648e-11
7.09806196709e-10
7.49549268413e-12
7.10251183798e-10
1.52894633679e-12
7.11914943336e-10
-4.21986479652e-12
7.14780356969e-10
-9.80517113539e-12
7.18837008069e-10
-1.5276163268e-11
7.24080860154e-10
-2.06774373893e-11
7.30513842511e-10
-2.60493124681e-11
7.38143348546e-10
-3.14280170942e-11
7.4698164315e-10
-3.68457345185e-11
7.57045167666e-10
-4.23304919265e-11
7.68353724282e-10
-4.79058769023e-11
7.80929515354e-10
-5.35905608351e-11
7.94796007366e-10
-5.93976063815e-11
8.09976583645e-10
-6.53335345586e-11
8.26492945086e-10
-7.1397127811e-11
8.44363214103e-10
-7.7577949705e-11
8.6359969477e-10
-8.38545719434e-11
8.84206242629e-10
-9.01925175427e-11
9.06175202842e-10
-9.65419586743e-11
9.29483887538e-10
-1.02835252163e-10
9.54090586083e-10
-1.08984458453e-10