/*--------------------------------*- C++ -*----------------------------------*\
  =========                 |
  \\      /  F ield         | OpenFOAM: The Open Source CFD Toolbox
   \\    /   O peration     | Website:  https://openfoam.org
    \\  /    A nd           | Version:  7
     \\/     M anipulation  |
\*---------------------------------------------------------------------------*/
FoamFile
{
    version     2.0;
    format      ascii;
    class       volVectorField;
    location    "2640";
    object      U;
}
// * * * * * * * * * * * * * * * * * * * * * * * * * * * * * * * * * * * * * //

dimensions      [0 1 -1 0 0 0 0];

internalField   nonuniform List<vector> 
8192
(
(0.00104347899936 0.000156521000643 0)
(0.000759376337975 0.000127581659122 0)
(0.000549403275071 8.23914004597e-05 0)
(0.000414148885956 5.28629851852e-05 0)
(0.000326306429891 3.49794672038e-05 0)
(0.000267228451181 2.40985075942e-05 0)
(0.00022585434367 1.72755958775e-05 0)
(0.000195750909134 1.2827834574e-05 0)
(0.000173113731321 9.80933915721e-06 0)
(0.000155622832603 7.68155551181e-06 0)
(0.000141811498296 6.12977479627e-06 0)
(0.000130717605632 4.96411393386e-06 0)
(0.00012168746395 4.06602388835e-06 0)
(0.000114262503015 3.35893327073e-06 0)
(0.000108111809993 2.79175606857e-06 0)
(0.000102990680585 2.32936975856e-06 0)
(9.87143511733e-05 1.9469561875e-06 0)
(9.51408528103e-05 1.62653883713e-06 0)
(9.2159507557e-05 1.35480321966e-06 0)
(8.96830136894e-05 1.12168761017e-06 0)
(8.76418745728e-05 9.19448644577e-07 0)
(8.59803960837e-05 7.420271789e-07 0)
(8.46537579375e-05 5.84608518321e-07 0)
(8.3625835877e-05 4.43311333719e-07 0)
(8.28675591047e-05 3.14963495169e-07 0)
(8.23556561481e-05 1.96937810875e-07 0)
(8.207168725e-05 8.70297579688e-08 0)
(8.20012912548e-05 -1.6634738408e-08 0)
(8.21335950183e-05 -1.15669614314e-07 0)
(8.24607467625e-05 -2.11482295931e-07 0)
(8.29775448471e-05 -3.05315494373e-07 0)
(8.3681140673e-05 -3.98279536071e-07 0)
(8.45707981082e-05 -4.91376561479e-07 0)
(8.56476944099e-05 -5.855178156e-07 0)
(8.69147495265e-05 -6.81534745724e-07 0)
(8.83764715079e-05 -7.80184002815e-07 0)
(9.00388056404e-05 -8.82146174801e-07 0)
(9.19089741241e-05 -9.88017585736e-07 0)
(9.39952915731e-05 -1.09829433015e-06 0)
(9.63069395928e-05 -1.21334730587e-06 0)
(9.88536811852e-05 -1.33338701903e-06 0)
(0.000101645493178 -1.45841679431e-06 0)
(0.000104692092594 -1.58817351324e-06 0)
(0.000108002331721 -1.72205556818e-06 0)
(0.000111583437528 -1.85903926568e-06 0)
(0.00011544007551 -1.99758683819e-06 0)
(0.000119573227519 -2.1355524277e-06 0)
(0.000123978889478 -2.27009598255e-06 0)
(0.000128646619219 -2.39761948178e-06 0)
(0.00013355799721 -2.51374359891e-06 0)
(0.000138685101864 -2.61334562705e-06 0)
(0.000143989142078 -2.69067877154e-06 0)
(0.00014941942544 -2.73958854079e-06 0)
(0.000154912862374 -2.75383228205e-06 0)
(0.000160394205363 -2.72749472977e-06 0)
(0.00016577719214 -2.65547642893e-06 0)
(0.00017096670018 -2.53401660443e-06 0)
(0.000175861928728 -2.36119783275e-06 0)
(0.000180360508321 -2.1373688578e-06 0)
(0.000184363302572 -1.86541403596e-06 0)
(0.000187779525092 -1.55079902078e-06 0)
(0.000190531670085 -1.20133874991e-06 0)
(0.000192559687866 -8.26674380377e-07 0)
(0.000193823871701 -4.37507658226e-07 0)
(0.000194306088255 -4.47101709548e-08 0)
(0.000194009265087 3.415288707e-07 0)
(0.000192955380324 7.12348214304e-07 0)
(0.000191182467111 1.06055420579e-06 0)
(0.000188741243039 1.38065615925e-06 0)
(0.000185691898701 1.66867184084e-06 0)
(0.000182101378238 1.92183000038e-06 0)
(0.00017804123633 2.13829138052e-06 0)
(0.000173585958288 2.31696462018e-06 0)
(0.000168811532469 2.45743802885e-06 0)
(0.000163794068612 2.5600018994e-06 0)
(0.000158608331529 2.62571083688e-06 0)
(0.000153326165558 2.65643067968e-06 0)
(0.000148014883333 2.65482725681e-06 0)
(0.000142735756229 2.62427596221e-06 0)
(0.000137542761126 2.56869585393e-06 0)
(0.000132481711505 2.49233123402e-06 0)
(0.000127589844213 2.39951439488e-06 0)
(0.000122895866108 2.29444300041e-06 0)
(0.000118420405336 2.18099806491e-06 0)
(0.000114176772162 2.06261643404e-06 0)
(0.000110171917712 1.94222037487e-06 0)
(0.000106407482928 1.82219779293e-06 0)
(0.000102880847596 1.70442192433e-06 0)
(9.95861134277e-05 1.59029759911e-06 0)
(9.65149796672e-05 1.48082244925e-06 0)
(9.3657490908e-05 1.37665349011e-06 0)
(9.10026529634e-05 1.2781724826e-06 0)
(8.85389235713e-05 1.18554574231e-06 0)
(8.62545910892e-05 1.0987763323e-06 0)
(8.41380572759e-05 1.01774779047e-06 0)
(8.21780407416e-05 9.42259726899e-07 0)
(8.03637166962e-05 8.72055934449e-07 0)
(7.86848068329e-05 8.06846137083e-07 0)
(7.71316311224e-05 7.46322335831e-07 0)
(7.56951311824e-05 6.90170883324e-07 0)
(7.43668729704e-05 6.38081089614e-07 0)
(7.31390348422e-05 5.89751246764e-07 0)
(7.20043856041e-05 5.44892614999e-07 0)
(7.09562559925e-05 5.03232004626e-07 0)
(6.99885060743e-05 4.64513277288e-07 0)
(6.90954902739e-05 4.28498214698e-07 0)
(6.82720211178e-05 3.9496693543e-07 0)
(6.75133322545e-05 3.63718200525e-07 0)
(6.68150408611e-05 3.34569721966e-07 0)
(6.6173109121e-05 3.07358783406e-07 0)
(6.55838040226e-05 2.81943298282e-07 0)
(6.50436542396e-05 2.58203669586e-07 0)
(6.45494022509e-05 2.36045691243e-07 0)
(6.40979490589e-05 2.15405047573e-07 0)
(6.36862877619e-05 1.96253960954e-07 0)
(6.33114206353e-05 1.78611033687e-07 0)
(6.2970252002e-05 1.62555619001e-07 0)
(6.26594455042e-05 1.48249046802e-07 0)
(6.23752285954e-05 1.35966180108e-07 0)
(6.21131176058e-05 1.26143283151e-07 0)
(6.18675209717e-05 1.19451991173e-07 0)
(6.16311516746e-05 1.16916128453e-07 0)
(6.1394136265e-05 1.20098304706e-07 0)
(6.11426434278e-05 1.31393771208e-07 0)
(6.08567973112e-05 1.5445179825e-07 0)
(6.0507827725e-05 1.94517435139e-07 0)
(6.0055975289e-05 2.57334885085e-07 0)
(5.94684910824e-05 3.30149426108e-07 0)
(0.00121019012811 0.000302851871791 0)
(0.00116037030683 0.000315173264222 0)
(0.00102702983455 0.000238113320249 0)
(0.000887619223458 0.000171806054731 0)
(0.00076695239954 0.000124545666104 0)
(0.000668505441404 9.20572334454e-05 0)
(0.000589580126044 6.96162805371e-05 0)
(0.000526357657263 5.38130408007e-05 0)
(0.000475407761578 4.24111940384e-05 0)
(0.00043400064548 3.39777031694e-05 0)
(0.000400054510709 2.75910840994e-05 0)
(0.000372001504874 2.26496912083e-05 0)
(0.000348659547555 1.8752533918e-05 0)
(0.000329130686961 1.56262333247e-05 0)
(0.000312725736661 1.30800881741e-05 0)
(0.000298909811883 1.0978080989e-05 0)
(0.000287263239472 9.22113627966e-06 0)
(0.000277453428624 7.73565784515e-06 0)
(0.000269214474583 6.46597382953e-06 0)
(0.000262332218454 5.36925780445e-06 0)
(0.000256633179133 4.41204823143e-06 0)
(0.000251976258038 3.5678191151e-06 0)
(0.000248246450763 2.81525459968e-06 0)
(0.000245350028136 2.13700326242e-06 0)
(0.000243210805808 1.51876479046e-06 0)
(0.000241767229547 9.48610736252e-07 0)
(0.000240970078481 4.16472765211e-07 0)
(0.000240780640974 -8.62472161614e-08 0)
(0.000241169254618 -5.66976362449e-07 0)
(0.000242114127556 -1.03220078807e-06 0)
(0.000243600377878 -1.48764459902e-06 0)
(0.000245619241391 -1.93840747412e-06 0)
(0.000248167405837 -2.38906660523e-06 0)
(0.000251246435349 -2.84374795626e-06 0)
(0.000254862252493 -3.30616938185e-06 0)
(0.000259024646802 -3.77965618868e-06 0)
(0.00026374677843 -4.26712817241e-06 0)
(0.000269044643939 -4.77105577002e-06 0)
(0.000274936468384 -5.29338188287e-06 0)
(0.000281441984299 -5.83540508118e-06 0)
(0.000288581554258 -6.39761965376e-06 0)
(0.000296375090297 -6.97950845276e-06 0)
(0.000304840721713 -7.57928631741e-06 0)
(0.000313993164231 -8.19359540854e-06 0)
(0.000323841750447 -8.81715986061e-06 0)
(0.000334388096408 -9.44241609622e-06 0)
(0.000345623405083 -1.00591473961e-05 0)
(0.000357525446946 -1.06541661957e-05 0)
(0.000370055312277 -1.12111037526e-05 0)
(0.000383154098195 -1.17103809866e-05 0)
(0.00039673977099 -1.21294421155e-05 0)
(0.000410704521483 -1.24433284856e-05 0)
(0.000424912993544 -1.26256492671e-05 0)
(0.000439201796287 -1.26499662921e-05 0)
(0.000453380692264 -1.24915553859e-05 0)
(0.000467235775877 -1.21294431874e-05 0)
(0.000480534815155 -1.15485562939e-05 0)
(0.000493034731797 -1.07417654343e-05 0)
(0.000504490950594 -9.71156566969e-06 0)
(0.000514668078049 -8.47110987786e-06 0)
(0.000523351099122 -7.04432366775e-06 0)
(0.000530356059243 -5.4649030471e-06 0)
(0.000535539096499 -3.77415677933e-06 0)
(0.000538802782992 -2.01789579592e-06 0)
(0.000540099067346 -2.4283218623e-07 0)
(0.00053942864769 1.50687524725e-06 0)
(0.000536837222147 3.19228459644e-06 0)
(0.000532409563845 4.78115315979e-06 0)
(0.000526262571212 6.24822982807e-06 0)
(0.000518538327875 7.57463479418e-06 0)
(0.000509397854623 8.74680381061e-06 0)
(0.000499015794565 9.75545781402e-06 0)
(0.000487575909579 1.05948958537e-05 0)
(0.000475267073373 1.1262700911e-05 0)
(0.000462279433069 1.17597737426e-05 0)
(0.000448800529268 1.20905098451e-05 0)
(0.000435011343504 1.22629136081e-05 0)
(0.00042108241385 1.22884873609e-05 0)
(0.000407170274232 1.21818152924e-05 0)
(0.000393414505803 1.19598548112e-05 0)
(0.000379935641534 1.16410233399e-05 0)
(0.000366834061186 1.12442097855e-05 0)
(0.000354189887727 1.07878418881e-05 0)
(0.00034206378122 1.02891121198e-05 0)
(0.000330498445179 9.76342023978e-06 0)
(0.000319520621911 9.22404589044e-06 0)
(0.000309143353873 8.68202960222e-06 0)
(0.000299368316553 8.14622007964e-06 0)
(0.000290188071935 7.62343824705e-06 0)
(0.000281588138878 7.11871121961e-06 0)
(0.000273548820076 6.63553734336e-06 0)
(0.000266046760332 6.17615371044e-06 0)
(0.00025905623665 5.74178718489e-06 0)
(0.000252550197456 5.33287823615e-06 0)
(0.000246501077926 4.94927285428e-06 0)
(0.000240881422482 4.59038209669e-06 0)
(0.00023566434601 4.25531125554e-06 0)
(0.000230823863365 3.94296210235e-06 0)
(0.000226335113634 3.65211209043e-06 0)
(0.000222174501867 3.38147451155e-06 0)
(0.0002183197773 3.12974321668e-06 0)
(0.000214750063549 2.89562518284e-06 0)
(0.000211445853127 2.67786364285e-06 0)
(0.000208388975917 2.47525413813e-06 0)
(0.000205562548915 2.28665536129e-06 0)
(0.000202950912616 2.11099641078e-06 0)
(0.00020053955778 1.94728172743e-06 0)
(0.00019831504492 1.79459487798e-06 0)
(0.000196264917651 1.65210214598e-06 0)
(0.000194377609902 1.51905692691e-06 0)
(0.000192642345952 1.39480587276e-06 0)
(0.000191049031121 1.27879792829e-06 0)
(0.000189588129731 1.17059754397e-06 0)
(0.00018825052555 1.06990378395e-06 0)
(0.000187027358241 9.76577507874e-07 0)
(0.000185909827303 8.90679672667e-07 0)
(0.000184888952594 8.12524881989e-07 0)
(0.000183955277808 7.42756066667e-07 0)
(0.000183098500813 6.82448517096e-07 0)
(0.000182307013814 6.33254868683e-07 0)
(0.000181567340791 5.97606518421e-07 0)
(0.000180863479221 5.78989497584e-07 0)
(0.000180176212578 5.8230464911e-07 0)
(0.000179482622211 6.14268974259e-07 0)
(0.000178756456515 6.83587468437e-07 0)
(0.000177971091668 7.99715890162e-07 0)
(0.000177110043718 9.65036983449e-07 0)
(0.000176188507955 1.13146772134e-06 0)
(0.00122478345883 0.000267878281761 0)
(0.00124106605261 0.000383684071171 0)
(0.00119608614094 0.000347922882023 0)
(0.00111317145331 0.000284321775899 0)
(0.00101994189624 0.000225926309519 0)
(0.000930102946508 0.00017896248095 0)
(0.00084909157445 0.000142647703265 0)
(0.00077830869932 0.000114786944754 0)
(0.000717391826773 9.33040411579e-05 0)
(0.000665320345436 7.65634364718e-05 0)
(0.000620919456507 6.3352357684e-05 0)
(0.000583071558964 5.27893044293e-05 0)
(0.000550791324033 4.42350966501e-05 0)
(0.00052324042771 3.72234115241e-05 0)
(0.000499717796874 3.14104754765e-05 0)
(0.000479641723696 2.65396763999e-05 0)
(0.000462530925761 2.24168964117e-05 0)
(0.000447987319001 1.88933010098e-05 0)
(0.000435681335589 1.58532543535e-05 0)
(0.000425339801051 1.32057547954e-05 0)
(0.000416736080189 1.08782989474e-05 0)
(0.000409682123702 8.8124342575e-06 0)
(0.000404022062705 6.96049683444e-06 0)
(0.000399627046193 5.2831901882e-06 0)
(0.0003963910701 3.74776731493e-06 0)
(0.0003942275958 2.3266509089e-06 0)
(0.000393066797073 9.96375735211e-07 0)
(0.000392853307711 -2.63228637886e-07 0)
(0.000393544367289 -1.46967203458e-06 0)
(0.000395108282211 -2.63829526804e-06 0)
(0.00039752313559 -3.78265439825e-06 0)
(0.000400775690084 -4.91481439859e-06 0)
(0.000404860433903 -6.04556465442e-06 0)
(0.000409778725484 -7.18456554645e-06 0)
(0.000415537995033 -8.34043070956e-06 0)
(0.000422150961773 -9.52074565447e-06 0)
(0.000429634824767 -1.07320204364e-05 0)
(0.000438010382738 -1.19795713019e-05 0)
(0.000447301034906 -1.32673243476e-05 0)
(0.000457531610905 -1.45975328534e-05 0)
(0.000468726974036 -1.59704001294e-05 0)
(0.000480910339607 -1.73836015025e-05 0)
(0.000494101250277 -1.88317039874e-05 0)
(0.000508313155365 -2.03054906989e-05 0)
(0.000523550553462 -2.17912110146e-05 0)
(0.000539805680679 -2.32697971372e-05 0)
(0.000557054763588 -2.47161140119e-05 0)
(0.000575253909301 -2.60983405151e-05 0)
(0.000594334776342 -2.73776127467e-05 0)
(0.000614200257265 -2.85080877108e-05 0)
(0.000634720500859 -2.94375990201e-05 0)
(0.000655729696071 -3.01090633778e-05 0)
(0.000677024112965 -3.04627488494e-05 0)
(0.000698361926631 -3.04394287288e-05 0)
(0.000719465316725 -2.99843254935e-05 0)
(0.000740025224819 -2.90516130087e-05 0)
(0.000759708961506 -2.7609113427e-05 0)
(0.00077817059501 -2.56427133335e-05 0)
(0.000795063740461 -2.31599420446e-05 0)
(0.000810056027122 -2.01921140831e-05 0)
(0.000822844183094 -1.6794470729e-05 0)
(0.000833168400326 -1.30439165682e-05 0)
(0.000840824513414 -9.03428694696e-06 0)
(0.000845672641635 -4.86958465875e-06 0)
(0.000847641364114 -6.56165971363e-07 0)
(0.000846727185022 3.50478034916e-06 0)
(0.000842989841818 7.52310949481e-06 0)
(0.000836544660208 1.13231188136e-05 0)
(0.000827553433531 1.48444245468e-05 0)
(0.000816215159173 1.80408905257e-05 0)
(0.000802757514093 2.08785922699e-05 0)
(0.000787429395125 2.33337687984e-05 0)
(0.000770494399252 2.53913821404e-05 0)
(0.000752224884864 2.70444789863e-05 0)
(0.000732896241764 2.82941914572e-05 0)
(0.000712781143081 2.91500067506e-05 0)
(0.0006921437697 2.96298887411e-05 0)
(0.000671234205123 2.97599209638e-05 0)
(0.000650283335363 2.95733078907e-05 0)
(0.000629498623627 2.91087620754e-05 0)
(0.000609061065419 2.8408461537e-05 0)
(0.000589123495368 2.75158485376e-05 0)
(0.00056981025576 2.64735464845e-05 0)
(0.000551218090263 2.53216136069e-05 0)
(0.000533418022907 2.40962600245e-05 0)
(0.000516457932417 2.28290614677e-05 0)
(0.000500365530898 2.15466288083e-05 0)
(0.000485151489877 2.0270647924e-05 0)
(0.000470812510099 1.90181868402e-05 0)
(0.000457334190329 1.78021706575e-05 0)
(0.000444693605299 1.66319399383e-05 0)
(0.0004328615484 1.55138287816e-05 0)
(0.000421804429149 1.44517187299e-05 0)
(0.000411485839044 1.34475421665e-05 0)
(0.000401867814056 1.25017219592e-05 0)
(0.000392911829445 1.16135437528e-05 0)
(0.000384579565106 1.07814631653e-05 0)
(0.000376833478745 1.00033538631e-05 0)
(0.00036963722132 9.27670393345e-06 0)
(0.000362955925235 8.59876862641e-06 0)
(0.000356756391512 7.96668703875e-06 0)
(0.00035100719788 7.37756981945e-06 0)
(0.000345678745793 6.82856391658e-06 0)
(0.000340743260793 6.31689969967e-06 0)
(0.000336174757576 5.83992477492e-06 0)
(0.000331948978378 5.39512829333e-06 0)
(0.000328043311039 4.98015878015e-06 0)
(0.000324436691109 4.59283826145e-06 0)
(0.000321109490631 4.23117497423e-06 0)
(0.00031804339473 3.89337696863e-06 0)
(0.000315221265727 3.5778687045e-06 0)
(0.000312626993179 3.28331304783e-06 0)
(0.000310245327011 3.00864116602e-06 0)
(0.000308061689681 2.75309343657e-06 0)
(0.000306061962255 2.51627491045e-06 0)
(0.000304232238518 2.29822980706e-06 0)
(0.000302558541193 2.09954018357e-06 0)
(0.000301026495901 1.92145479614e-06 0)
(0.000299620963263 1.76605395158e-06 0)
(0.000298325640869 1.63645398259e-06 0)
(0.000297122670893 1.53704624333e-06 0)
(0.000295992338004 1.47374082711e-06 0)
(0.000294913037985 1.45411740015e-06 0)
(0.000293861879808 1.48720306208e-06 0)
(0.000292816607659 1.58209050855e-06 0)
(0.000291760047684 1.74313787203e-06 0)
(0.000290688055663 1.95465573726e-06 0)
(0.000289615490368 2.13595085387e-06 0)
(0.0012219097888 0.000221185030575 0)
(0.00125329118797 0.000382713317203 0)
(0.0012507905112 0.000396374207136 0)
(0.00121283739318 0.000356738238938 0)
(0.00115445759364 0.00030511918509 0)
(0.00108806085922 0.000256005271039 0)
(0.00102112803629 0.000213549089453 0)
(0.000957626994253 0.000178169456965 0)
(0.000899389216912 0.000149076160118 0)
(0.000847039828758 0.000125212168395 0)
(0.000800562172937 0.000105582152057 0)
(0.000759623882486 8.93456797861e-05 0)
(0.000723758715734 7.58241049304e-05 0)
(0.000692464405989 6.44795915168e-05 0)
(0.000665252787165 5.48885276345e-05 0)
(0.000641673366224 4.67171011728e-05 0)
(0.000621322473625 3.97011453496e-05 0)
(0.000603844845241 3.36302708018e-05 0)
(0.000588931454536 2.83356427217e-05 0)
(0.000576315686893 2.36806531648e-05 0)
(0.000565768973854 1.95538196034e-05 0)
(0.000557096460533 1.58633691681e-05 0)
(0.000550132978813 1.25330910964e-05 0)
(0.000544739435897 9.49914258369e-06 0)
(0.000540799641769 6.70757321764e-06 0)
(0.000538217555983 4.11239410568e-06 0)
(0.000536914914262 1.67406302486e-06 0)
(0.000536829187955 -6.41709097151e-07 0)
(0.000537911827072 -2.86489787991e-06 0)
(0.000540126739638 -5.02190318172e-06 0)
(0.000543448964801 -7.13612983822e-06 0)
(0.000547863497493 -9.22842937155e-06 0)
(0.000553364222765 -1.131742028e-05 0)
(0.000559952919666 -1.34196980542e-05 0)
(0.000567638294095 -1.55499398277e-05 0)
(0.000576434998405 -1.77209030831e-05 0)
(0.000586362592926 -1.99433137166e-05 0)
(0.000597444401059 -2.22256348663e-05 0)
(0.000609706205525 -2.45737055595e-05 0)
(0.000623174729156 -2.69902366757e-05 0)
(0.00063787584012 -2.94741529486e-05 0)
(0.000653832419777 -3.20197734966e-05 0)
(0.000671061833028 -3.46158324662e-05 0)
(0.000689572948304 -3.72443560631e-05 0)
(0.000709362669927 -3.98794357836e-05 0)
(0.000730411972801 -4.24859698583e-05 0)
(0.000752681471709 -4.50184875989e-05 0)
(0.000776106618026 -4.74202207025e-05 0)
(0.00080059269681 -4.96226376056e-05 0)
(0.000826009895402 -5.15456993412e-05 0)
(0.0008521888239 -5.30991145575e-05 0)
(0.000878916974612 -5.41848473478e-05 0)
(0.000905936690853 -5.47010506019e-05 0)
(0.000932945249674 -5.45474516375e-05 0)
(0.000959597623144 -5.36320186051e-05 0)
(0.000985512352601 -5.18785110066e-05 0)
(0.00101028074843 -4.92343035659e-05 0)
(0.00103347932845 -4.56776954803e-05 0)
(0.00105468505277 -4.12237927895e-05 0)
(0.00107349252581 -3.5927991805e-05 0)
(0.00108953194644 -2.98861453481e-05 0)
(0.00110248625237 -2.32307490936e-05 0)
(0.00111210572463 -1.61230331296e-05 0)
(0.00111821842051 -8.74166619326e-06 0)
(0.00112073528045 -1.26968130134e-06 0)
(0.00111964957922 6.11815059422e-06 0)
(0.0011150313738 1.32652517846e-05 0)
(0.00110701841366 2.00390722133e-05 0)
(0.0010958053188 2.6332737673e-05 0)
(0.00108163263111 3.20634767389e-05 0)
(0.00106477676125 3.7169451964e-05 0)
(0.00104554116483 4.16065505575e-05 0)
(0.00102424855208 4.53461315138e-05 0)
(0.0010012336851 4.83740312409e-05 0)
(0.00097683633029 5.06905563151e-05 0)
(0.000951394125724 5.23108643392e-05 0)
(0.000925235387386 5.32650630057e-05 0)
(0.000898672121377 5.35974991516e-05 0)
(0.000871993663385 5.33649817037e-05 0)
(0.000845461397946 5.26339925732e-05 0)
(0.000819304923232 5.14771943471e-05 0)
(0.000793719859127 4.99696837533e-05 0)
(0.000768867300718 4.81854467652e-05 0)
(0.000744874746024 4.6194374633e-05 0)
(0.000721838208172 4.40600489232e-05 0)
(0.000699825168068 4.18383513856e-05 0)
(0.000678878026236 3.95768338373e-05 0)
(0.000659017754402 3.7314710562e-05 0)
(0.000640247509844 3.50833064012e-05 0)
(0.000622556042948 3.29067984965e-05 0)
(0.000605920790511 3.08031129987e-05 0)
(0.000590310598607 2.87848704803e-05 0)
(0.000575688057804 2.68603054038e-05 0)
(0.00056201146063 2.50341132913e-05 0)
(0.000549236408436 2.3308200592e-05 0)
(0.000537317104245 2.16823284116e-05 0)
(0.000526207372097 2.01546512659e-05 0)
(0.000515861443408 1.87221587446e-05 0)
(0.000506234548546 1.73810308148e-05 0)
(0.000497283348163 1.61269191223e-05 0)
(0.00048896623451 1.49551661566e-05 0)
(0.000481243528595 1.38609737173e-05 0)
(0.000474077594775 1.28395305346e-05 0)
(0.000467432890533 1.18861079851e-05 0)
(0.00046127596567 1.09961312009e-05 0)
(0.000455575422138 1.01652321243e-05 0)
(0.000450301843045 9.38928973004e-06 0)
(0.000445427697135 8.66446225976e-06 0)
(0.00044092722302 7.9872153775e-06 0)
(0.000436776295777 7.35435016362e-06 0)
(0.000432952277033 6.76303431161e-06 0)
(0.000429433848393 6.21084024134e-06 0)
(0.000426200827066 5.69579360603e-06 0)
(0.00042323396178 5.21643625174e-06 0)
(0.000420514706867 4.77190755576e-06 0)
(0.000418024972887 4.36204847347e-06 0)
(0.000415746854035 3.98753176294e-06 0)
(0.000413662336707 3.65002039841e-06 0)
(0.000411753001608 3.35235116961e-06 0)
(0.00040999974633 3.09873009726e-06 0)
(0.000408382580367 2.89490237421e-06 0)
(0.000406880586347 2.74820864277e-06 0)
(0.000405472207072 2.6673267271e-06 0)
(0.000404136111199 2.66124649269e-06 0)
(0.000402852985521 2.73644454466e-06 0)
(0.000401608491069 2.88983875992e-06 0)
(0.000400396340409 3.0920985775e-06 0)
(0.000399214474335 3.25294044298e-06 0)
(0.00121689533323 0.000182379904252 0)
(0.001248907845 0.000358124518473 0)
(0.00126522184962 0.000407149658507 0)
(0.00125503205211 0.000394105683592 0)
(0.00122412275403 0.000357040818119 0)
(0.00118081289043 0.000313790215625 0)
(0.00113166051855 0.000271849319053 0)
(0.00108104807738 0.000233982689876 0)
(0.00103166890548 0.000200879855771 0)
(0.000985058414174 0.00017236833161 0)
(0.000942002500569 0.000147959537783 0)
(0.000902820071689 0.000127088993048 0)
(0.000867549557209 0.000109216452725 0)
(0.000836068773314 9.38623173796e-05 0)
(0.000808170437442 8.06157367087e-05 0)
(0.00078360884553 6.91308854489e-05 0)
(0.000762128075519 5.91190044726e-05 0)
(0.000743478492536 5.03396041636e-05 0)
(0.000727425927421 4.25922466711e-05 0)
(0.00071375632446 3.57094017256e-05 0)
(0.000702277634251 2.95504566619e-05 0)
(0.000692820072567 2.39967900041e-05 0)
(0.000685235447601 1.89477604064e-05 0)
(0.000679395991405 1.43174564787e-05 0)
(0.000675192961972 1.00320676732e-05 0)
(0.00067253517498 6.02775798622e-06 0)
(0.000671347556122 2.24894612563e-06 0)
(0.000671569761853 -1.35308429568e-06 0)
(0.000673154887086 -4.82129868882e-06 0)
(0.00067606826303 -8.1938014307e-06 0)
(0.000680286339036 -1.15045420919e-05 0)
(0.000685795630289 -1.47838490715e-05 0)
(0.000692591707134 -1.80588092596e-05 0)
(0.000700678198694 -2.13535025257e-05 0)
(0.000710065778678 -2.46890930512e-05 0)
(0.000720771096707 -2.8083773628e-05 0)
(0.000732815613731 -3.15525541434e-05 0)
(0.00074622429517 -3.51068812812e-05 0)
(0.000761024110358 -3.87540737544e-05 0)
(0.000777242282198 -4.2496556437e-05 0)
(0.000794904227221 -4.63308790409e-05 0)
(0.000814031124618 -5.02465115681e-05 0)
(0.000834637054777 -5.42244220396e-05 0)
(0.000856725655562 -5.8235463821e-05 0)
(0.000880286260773 -6.22386331082e-05 0)
(0.000905289513339 -6.6179303185e-05 0)
(0.000931682489697 -6.99876017454e-05 0)
(0.000959383435044 -7.35771675064e-05 0)
(0.000988276294147 -7.68445951952e-05 0)
(0.00101820532837 -7.96699384917e-05 0)
(0.00104897023029 -8.19186674244e-05 0)
(0.00108032226851 -8.34454430329e-05 0)
(0.0011119620941 -8.40999547779e-05 0)
(0.00114353988543 -8.37348545807e-05 0)
(0.00117465847099 -8.22155312328e-05 0)
(0.00120487992796 -7.9431141693e-05 0)
(0.00123373590912 -7.53060080333e-05 0)
(0.00126074162034 -6.98102427779e-05 0)
(0.00128541298295 -6.29682965459e-05 0)
(0.00130728609011 -5.48640373308e-05 0)
(0.00132593762278 -4.56410285649e-05 0)
(0.0013410044776 -3.54970098075e-05 0)
(0.0013522005929 -2.46723521279e-05 0)
(0.00135932901259 -1.34334648534e-05 0)
(0.00136228774999 -2.05349265694e-06 0)
(0.00136106900434 9.20638539371e-06 0)
(0.00135575251207 2.01116807732e-05 0)
(0.00134649484725 3.04632245522e-05 0)
(0.00133351690483 4.00995703418e-05 0)
(0.00131709149937 4.88946775901e-05 0)
(0.00129753222252 5.67533322393e-05 0)
(0.00127518382461 6.36065945003e-05 0)
(0.00125041376133 6.94086902893e-05 0)
(0.00122360429608 7.41357294653e-05 0)
(0.00119514461976 7.77858132181e-05 0)
(0.00116542271695 8.0379639043e-05 0)
(0.00113481704092 8.19606280457e-05 0)
(0.00110368835276 8.25938155534e-05 0)
(0.00107237225691 8.23631489228e-05 0)
(0.00104117298964 8.13672908149e-05 0)
(0.00101035889868 7.97143978372e-05 0)
(0.000980159839755 7.75165428563e-05 0)
(0.000950766477426 7.48844515436e-05 0)
(0.000922331274544 7.19230741499e-05 0)
(0.000894970822804 6.87282892204e-05 0)
(0.000868769114253 6.53848133424e-05 0)
(0.000843781365953 6.19652188262e-05 0)
(0.000820038064694 5.8529858516e-05 0)
(0.000797548972754 5.51274576418e-05 0)
(0.000776306912057 5.17961402002e-05 0)
(0.00075629121203 4.85646915782e-05 0)
(0.000737470761395 4.54539045488e-05 0)
(0.000719806644979 4.24779007858e-05 0)
(0.000703254374893 3.9645359363e-05 0)
(0.000687765743284 3.69606143387e-05 0)
(0.000673290333774 3.44246060653e-05 0)
(0.000659776733001 3.2035685793e-05 0)
(0.000647173484013 2.97902826012e-05 0)
(0.000635429821258 2.7683446621e-05 0)
(0.000624496223441 2.57092848031e-05 0)
(0.000614324816394 2.38613056104e-05 0)
(0.000604869653778 2.21326882901e-05 0)
(0.000596086899235 2.05164907998e-05 0)
(0.00058793492965 1.90058089257e-05 0)
(0.00058037437566 1.75938973232e-05 0)
(0.00057336811237 1.62742618013e-05 0)
(0.000566881210491 1.50407307054e-05 0)
(0.000560880855738 1.38875122752e-05 0)
(0.000555336242273 1.28092438681e-05 0)
(0.000550218444246 1.18010384204e-05 0)
(0.000545500268068 1.08585329678e-05 0)
(0.000541156086875 9.97794388693e-06 0)
(0.000537161657857 9.15613322722e-06 0)
(0.000533493922707 8.39069042104e-06 0)
(0.000530130791638 7.68003314325e-06 0)
(0.00052705091244 7.0235302559e-06 0)
(0.000524233428347 6.42164754012e-06 0)
(0.000521657732738 5.87611261851e-06 0)
(0.000519303235793 5.390086535e-06 0)
(0.000517149169526 4.96831235817e-06 0)
(0.000515174474598 4.61717770816e-06 0)
(0.000513357835973 4.34456338751e-06 0)
(0.000511677962837 4.15922267206e-06 0)
(0.000510114226722 4.06918174664e-06 0)
(0.000508647719313 4.07814252412e-06 0)
(0.000507262446857 4.17790856115e-06 0)
(0.000505945044203 4.33358330777e-06 0)
(0.000504678367639 4.45999947006e-06 0)
(0.00121279442595 0.000152690140084 0)
(0.00124148941986 0.000327106761195 0)
(0.00126523133807 0.000398111471609 0)
(0.00127110540699 0.000407459577842 0)
(0.00125938160871 0.000386319998564 0)
(0.00123470944564 0.000352493039731 0)
(0.00120193222268 0.000315076067443 0)
(0.00116488765409 0.000278412928838 0)
(0.00112631495775 0.000244401462652 0)
(0.00108805727998 0.000213714871478 0)
(0.00105129538671 0.00018643078254 0)
(0.00101674296462 0.00016235257712 0)
(0.000984793938414 0.000141172387335 0)
(0.000955628661601 0.000122552421624 0)
(0.000929288604425 0.000106164003836 0)
(0.000905728050726 9.17047424642e-05 0)
(0.000884849430239 7.89045167233e-05 0)
(0.0008665271745 6.75259096735e-05 0)
(0.000850623604521 5.73620556028e-05 0)
(0.000836999328557 4.82334514119e-05 0)
(0.00082551988337 3.99845224535e-05 0)
(0.000816059823112 3.24803266694e-05 0)
(0.000808505087938 2.56035648781e-05 0)
(0.000802754224716 1.92519529547e-05 0)
(0.00079871885161 1.33359558559e-05 0)
(0.000796323632867 7.77685831026e-06 0)
(0.000795505943077 2.50513794084e-06 0)
(0.000796215339696 -2.54089418033e-06 0)
(0.000798412917361 -7.41620654858e-06 0)
(0.000802070592638 -1.21699586801e-05 0)
(0.000807170347205 -1.68462282507e-05 0)
(0.000813703435172 -2.14845538075e-05 0)
(0.000821669550744 -2.61203073418e-05 0)
(0.000831075944165 -3.07848984271e-05 0)
(0.000841936465376 -3.55058058126e-05 0)
(0.000854270507475 -4.03064267802e-05 0)
(0.000868101815268 -4.52057297538e-05 0)
(0.000883457117697 -5.02176914747e-05 0)
(0.000900364536792 -5.53504975952e-05 0)
(0.000918851720208 -6.06054852383e-05 0)
(0.000938943639933 -6.59758098246e-05 0)
(0.000960659997302 -7.14448276622e-05 0)
(0.000984012175446 -7.69842034719e-05 0)
(0.00100899968667 -8.25517805867e-05 0)
(0.00103560607682 -8.80892947573e-05 0)
(0.00106379427518 -9.35200722913e-05 0)
(0.00109350142061 -9.87469310215e-05 0)
(0.00112463325819 -0.000103650594527 0)
(0.00115705828781 -0.000108089027143 0)
(0.00119060195986 -0.000111898180084 0)
(0.00122504134689 -0.000114894679268 0)
(0.00126010086135 -0.000116880945873 0)
(0.00129544971164 -0.000117653087708 0)
(0.00133070185593 -0.000117011615529 0)
(0.00136541918619 -0.000114774643347 0)
(0.00139911852807 -0.000110792785434 0)
(0.0014312827742 -0.000104964549298 0)
(0.00146137610758 -9.72507057111e-05 0)
(0.00148886285344 -8.76859048728e-05 0)
(0.00151322903737 -7.63856875827e-05 0)
(0.00153400522341 -6.35470707375e-05 0)
(0.00155078868666 -4.94412671918e-05 0)
(0.00156326257595 -3.43980899972e-05 0)
(0.00157120968193 -1.87832535961e-05 0)
(0.00157451898387 -2.97175517156e-06 0)
(0.00157318435597 1.26779983608e-05 0)
(0.00156729639308 2.78444890697e-05 0)
(0.00155702966602 4.22547642883e-05 0)
(0.00154262824161 5.56873448889e-05 0)
(0.0015243918343 6.79686559859e-05 0)
(0.00150266384677 7.89665526287e-05 0)
(0.00147782140606 8.85841428632e-05 0)
(0.00145026675814 9.67557803705e-05 0)
(0.0014204191552 0.000103445633201 0)
(0.0013887065353 0.00010864813085 0)
(0.00135555667193 0.000112389013274 0)
(0.00132138790145 0.000114725627424 0)
(0.00128659989813 0.000115745436905 0)
(0.00125156517451 0.000115562279052 0)
(0.00121662199993 0.000114310537736 0)
(0.00118206926812 0.000112137912403 0)
(0.00114816357114 0.000109197726582 0)
(0.0011151184429 0.000105641704498 0)
(0.00108310549534 0.000101613921439 0)
(0.00105225702678 9.72463155928e-05 0)
(0.00102266963597 9.26558431132e-05 0)
(0.000994408404599 8.79431287326e-05 0)
(0.000967511285001 8.31923324798e-05 0)
(0.000941993419303 7.84719071235e-05 0)
(0.000917851203222 7.38359358845e-05 0)
(0.000895065981665 6.93257882392e-05 0)
(0.000873607320415 6.49718927139e-05 0)
(0.000853435839397 6.07954849966e-05 0)
(0.000834505620501 5.68102409092e-05 0)