/*--------------------------------*- C++ -*----------------------------------*\
  =========                 |
  \\      /  F ield         | OpenFOAM: The Open Source CFD Toolbox
   \\    /   O peration     | Website:  https://openfoam.org
    \\  /    A nd           | Version:  7
     \\/     M anipulation  |
\*---------------------------------------------------------------------------*/
FoamFile
{
    version     2.0;
    format      ascii;
    class       volScalarField;
    location    "720";
    object      p;
}
// * * * * * * * * * * * * * * * * * * * * * * * * * * * * * * * * * * * * * //

dimensions      [0 2 -2 0 0 0 0];

internalField   nonuniform List<scalar> 
8192
(
0.000676593976579
0.000505061378728
0.000419489014594
0.000375435402711
0.000350476031286
0.000335303343913
0.000325495371159
0.000318805520179
0.000314026084574
0.000310472937962
0.000307739012468
0.000305570868951
0.000303804166377
0.000302328468077
0.000301067241504
0.000299966034907
0.000298985223156
0.00029809540082
0.000297274362278
0.000296505064039
0.000295774212702
0.00029507126194
0.00029438768283
0.000293716420332
0.000293051478109
0.000292387592585
0.000291719968316
0.000291044056212
0.000290355360355
0.000289649261474
0.000288920848432
0.000288164751031
0.000287374968467
0.000286544689154
0.00028566609853
0.000284730173148
0.000283726460822
0.000282642849376
0.000281465329337
0.000280177760576
0.000278761657646
0.000277196015293
0.000275457201807
0.000273518954949
0.000271352519313
0.000268926965829
0.000266209728653
0.000263167382799
0.000259766663603
0.000255975701206
0.000251765410701
0.000247110952498
0.000241993162238
0.000236399854812
0.000230326927805
0.000223779221701
0.000216771120238
0.000209326889725
0.000201480756089
0.000193276711535
0.000184768018586
0.000176016332771
0.000167090312124
0.000158063600297
0.000149012214047
0.000140011597752
0.000131133774423
0.000122445015837
0.000114004316565
0.00010586271475
9.80632673098e-05
9.06413786367e-05
8.36252058836e-05
7.70359659642e-05
7.08880794596e-05
6.5189184391e-05
5.99401225172e-05
5.51350337276e-05
5.0761675983e-05
4.68020341228e-05
4.32332096587e-05
4.00285244278e-05
3.71587337132e-05
3.45932370466e-05
3.23011883288e-05
3.02524361856e-05
2.84182573373e-05
2.67718763977e-05
2.52887871693e-05
2.39469051218e-05
2.27265860551e-05
2.16105468075e-05
2.05837196425e-05
1.96330671495e-05
1.87473779758e-05
1.79170587151e-05
1.71339319843e-05
1.63910474255e-05
1.56825090094e-05
1.5003320402e-05
1.43492483049e-05
1.37167031834e-05
1.31026358644e-05
1.25044485842e-05
1.19199186163e-05
1.13471329682e-05
1.07844324073e-05
1.02303635195e-05
9.68363737504e-06
9.14309383323e-06
8.60767045152e-06
8.07637544889e-06
7.54826420978e-06
7.02241943046e-06
6.49793532277e-06
5.97390734166e-06
5.44943001389e-06
4.92360785376e-06
4.39558792267e-06
3.86462947328e-06
3.33023819744e-06
2.7924161692e-06
2.25212490174e-06
1.71215631987e-06
1.17882564908e-06
6.65444488217e-07
2.00861363852e-07
-7.0837944491e-08
0.000527662948443
0.000464166538633
0.000414515144874
0.000381913143389
0.000360044446497
0.000344913762263
0.000334139568033
0.000326255515187
0.000320335722981
0.000315781668417
0.000312197420687
0.000309315060039
0.000306949270343
0.000304969178083
0.000303280547305
0.000301814295638
0.000300518936176
0.000299355502301
0.000298294072039
0.000297311341967
0.000296388902002
0.000295511986229
0.000294668551929
0.000293848587987
0.000293043585235
0.000292246122207
0.000291449531978
0.000290647627965
0.000289834471396
0.000289004165794
0.00028815066874
0.000287267613242
0.000286348132572
0.000285384684087
0.000284368868747
0.000283291244779
0.000282141135454
0.000280906433418
0.000279573406507
0.000278126513789
0.00027654824445
0.000274818997382
0.000272917024138
0.00027081846317
0.000268497496287
0.000265926659268
0.000263077333988
0.000259920439542
0.00025642732197
0.000252570819349
0.000248326452592
0.000243673670392
0.000238597063863
0.000233087470078
0.000227142900839
0.000220769259572
0.000213980831025
0.000206800540325
0.000199259977856
0.000191399184021
0.000183266176111
0.000174916165083
0.000166410358346
0.000157814246238
0.000149195386327
0.000140620904608
0.000132155077595
0.000123857341174
0.00011578096431
0.000107972424379
0.000100471319197
9.33105667847e-05
8.65166738759e-05
8.01099409078e-05
7.41045556443e-05
6.85086005842e-05
6.33240546176e-05
5.85468964134e-05
5.41674022802e-05
5.0170686162e-05
4.65374717802e-05
4.32450396082e-05
4.02682626679e-05
3.758063997e-05
3.51552479018e-05
3.29655533849e-05
3.09860582277e-05
2.91927683818e-05
2.75634991917e-05
2.60780394168e-05
2.47182013968e-05
2.34677856934e-05
2.23124856335e-05
2.12397536177e-05
2.02386461892e-05
1.92996609587e-05
1.84145743839e-05
1.75762866812e-05
1.6778677453e-05
1.60164741524e-05
1.52851339641e-05
1.45807391049e-05
1.38999047443e-05
1.32396986762e-05
1.25975714814e-05
1.19712961006e-05
1.13589155553e-05
1.07586978357e-05
1.01690969022e-05
9.58871907328e-06
9.01629407291e-06
8.45065039316e-06
7.89069473609e-06
7.33539581941e-06
6.78377318705e-06
6.23489255005e-06
5.68787014993e-06
5.14189046983e-06
4.59624413564e-06
4.05039717997e-06
3.50410948158e-06
2.95763138869e-06
2.41202591629e-06
1.8696962866e-06
1.33525555949e-06
8.17021171891e-07
3.29000657725e-07
-1.44616831912e-08
0.000444670706821
0.000422027612712
0.000396073608811
0.000374881602595
0.000358807981295
0.000346540311728
0.000337057199388
0.000329629970084
0.000323736116684
0.000318996287949
0.000315132233443
0.000311938057994
0.000309260111822
0.000306982734237
0.000305018072821
0.000303298773734
0.000301772704169
0.000300399117126
0.000299145842908
0.000297987214566
0.000296902520628
0.00029587483897
0.000294890147815
0.000293936639462
0.000293004182997
0.000292083897117
0.000291167802151
0.000290248532815
0.000289319095323
0.000288372654344
0.000287402341045
0.000286401074903
0.000285361393359
0.000284275285137
0.000283134024057
0.000281928001892
0.000280646560034
0.000279277822002
0.000277808530727
0.000276223897865
0.000274507475422
0.000272641064469
0.000270604679643
0.000268376592875
0.00026593348254
0.000263250715825
0.000260302788683
0.000257063940155
0.000253508942239
0.000249614046329
0.000245358042155
0.000240723364006
0.000235697165399
0.00023027228667
0.000224448057166
0.000218230901587
0.000211634741802
0.000204681195312
0.000197399568279
0.000189826643083
0.000182006260854
0.000173988668923
0.000165829524708
0.000157588413114
0.000149326847234
0.000141105963961
0.000132984290614
0.000125015923814
0.00011724935692
0.000109726985515
0.000102485099646
9.55541015626e-05
8.89587456294e-05
8.27182967328e-05
7.68465762588e-05
7.13519238665e-05
6.62371539837e-05
6.14996131517e-05
5.71314275063e-05
5.31199826238e-05
4.94486208148e-05
4.60974975661e-05
4.30445146392e-05
4.02662459096e-05
3.7738784918e-05
3.54384662339e-05
3.33424361487e-05
3.14290697512e-05
2.96782458324e-05
2.80715005092e-05
2.65920834464e-05
2.52249409257e-05
2.39566470371e-05
2.27753012481e-05
2.16704063684e-05
2.06327378542e-05
1.9654211942e-05
1.87277580376e-05
1.78471984912e-05
1.70071378202e-05
1.62028620662e-05
1.54302485862e-05
1.46856857998e-05
1.39660024156e-05
1.32684052253e-05
1.25904247525e-05
1.19298677919e-05
1.12847761625e-05
1.06533908459e-05
1.00341210136e-05
9.42551736342e-06
8.82624956022e-06
8.2350875806e-06
7.65088721979e-06
7.07258018158e-06
6.49916982518e-06
5.92973411789e-06
5.36343841849e-06
4.7995618246e-06
4.23754278818e-06
3.67705215722e-06
3.11810582508e-06
2.56123496953e-06
2.00774076406e-06
1.46006995317e-06
9.22271489998e-07
3.99678445964e-07
1.15044783333e-09
0.000400059653005
0.000391705954982
0.000377553734685
0.000363802614834
0.000352413232383
0.000343172980252
0.000335628153093
0.000329410032616
0.000324240284936
0.000319906290821
0.00031624229464
0.000313117247528
0.000310426702092
0.000308087018288
0.000306030986775
0.000304204419645
0.000302563458942
0.000301072442391
0.000299702209253
0.000298428754886
0.000297232160808
0.000296095741584
0.000295005361586
0.000293948884437
0.000292915725842
0.000291896486437
0.00029088264403
0.000289866294864
0.000288839931833
0.000287796247547
0.000286727956364
0.000285627629475
0.000284487538263
0.000283299502345
0.000282054739633
0.000280743716979
0.000279356001035
0.000277880110677
0.000276303374056
0.000274611795898
0.000272789943537
0.000270820863968
0.000268686048145
0.000266365463367
0.000263837678193
0.000261080106762
0.000258069397997
0.000254781988948
0.000251194827772
0.000247286251337
0.000243036976473
0.000238431139359
0.000233457301919
0.000228109346387
0.000222387200438
0.000216297368766
0.000209853273887
0.000203075415445
0.000195991347432
0.000188635476716
0.000181048707874
0.000173277933222
0.000165375236751
0.000157396578125
0.000149399852857
0.000141442566197
0.000133579578631
0.000125861311026
0.000118332680093
0.000111032786145
0.000103995088382
9.72477393374e-05
9.08138662405e-05
8.47117210043e-05
7.89546854102e-05
7.35511653761e-05
6.85044657238e-05
6.38127698077e-05
5.94693264563e-05
5.54628870438e-05
5.17783703926e-05
4.83976873036e-05
4.53006354106e-05
4.24657775606e-05
3.98712344878e-05
3.74953481644e-05
3.53171971122e-05
3.33169655722e-05
3.14761815689e-05
2.97778460684e-05
2.82064769953e-05
2.67480907108e-05
2.53901401935e-05
2.41214256848e-05
2.29319897184e-05
2.18130054772e-05
2.07566645951e-05
1.97560686532e-05
1.88051268825e-05
1.78984616187e-05
1.70313220867e-05
1.61995066933e-05
1.53992935012e-05
1.46273784728e-05
1.38808208211e-05
1.31569948734e-05
1.24535477395e-05
1.1768362213e-05
1.10995242914e-05
1.04452948698e-05
9.80408516405e-06
9.17443561535e-06
8.55499806988e-06
7.94452126642e-06
7.34183977326e-06
6.74586683577e-06
6.15559183434e-06
5.57008354866e-06
4.98850094989e-06
4.41011419692e-06
3.83433983208e-06
3.26079643456e-06
2.68938998942e-06
2.12043975139e-06
1.55483499406e-06
9.94059625395e-07
4.39187491724e-07
3.87105816203e-09
0.00037238052582
0.000370456741315
0.000362701114285
0.000353547909466
0.000345301507428
0.000338298750132
0.000332382360848
0.000327346900915
0.000323024015946
0.000319284065656
0.000316025835235
0.000313168120717
0.000310644318496
0.000308399037449
0.000306385858009
0.000304565719905
0.000302905671192
0.00030137784791
0.000299958619927
0.000298627868246
0.000297368371773
0.00029616528693
0.000295005706157
0.000293878282949
0.000292772912997
0.000291680460198
0.000290592517978
0.000289501202729
0.000288398972171
0.000287278459735
0.000286132322291
0.000284953097213
0.000283733065354
0.000282464117272
0.00028113762057
0.000279744287102
0.000278274039529
0.00027671587802
0.000275057749274
0.00027328642221
0.000271387377213
0.000269344719405
0.000267141130502
0.000264757878757
0.000262174911208
0.000259371056348
0.000256324365992
0.000253012620659
0.000249414009999
0.000245507978137
0.000241276194252
0.000236703578653
0.000231779294062
0.000226497613151
0.000220858600527
0.000214868592136
0.000208540491251
0.000201893902672
0.000194955101028
0.000187756832536
0.000180338010012
0.000172743358137
0.000165022847829
0.00015723052726
0.000149422522909
0.000141654513586
0.000133979289125
0.000126444870724
0.000119093526588
0.000111961700281
0.000105080458124
9.84760033345e-05
9.21700290754e-05
8.61798750278e-05
8.05184927593e-05
7.51942550659e-05
7.02107212537e-05
6.55665184842e-05
6.1255466851e-05
5.72669939331e-05
5.35868039867e-05
5.01977161508e-05
4.70805676968e-05
4.42150866118e-05
4.15806620474e-05
3.91569719105e-05
3.69244549066e-05
3.48646354137e-05
3.2960321713e-05
3.11957031936e-05
2.95563718548e-05
2.80292905738e-05
2.66027263358e-05
2.52661625286e-05
2.40102005399e-05
2.28264579367e-05
2.17074680247e-05
2.06465839117e-05
1.96378888307e-05
1.86761136766e-05
1.77565620194e-05
1.68750425425e-05
1.60278085308e-05
1.52115039641e-05
1.44231156305e-05
1.36599307194e-05
1.29194992995e-05
1.21996011778e-05
1.14982166261e-05
1.08135005657e-05
1.01437598108e-05
9.48743308968e-06
8.84307358369e-06
8.20933385865e-06
7.58495311606e-06
6.96874686643e-06
6.35959926186e-06
5.75645863451e-06
5.15833716299e-06
4.56431629251e-06
3.97356048728e-06
3.38534309741e-06
2.79908800677e-06
2.21442274427e-06
1.6311959758e-06
1.0492445281e-06
4.67250866369e-07
4.57650121672e-09
0.000353978075375
0.000354929211417
0.000350936143718
0.000344842533847
0.000338781482872
0.00033337530437
0.000328674763848
0.000324585098862
0.00032099981399
0.000317830502703
0.000315007856656
0.000312477101306
0.000310193790661
0.000308120903089
0.000306226987432
0.000304484977758
0.000302871396338
0.000301365775048
0.000299950201573
0.000298608941669
0.000297328112813
0.000296095396698
0.000294899783626
0.000293731344396
0.000292581027499
0.000291440474372
0.000290301851931
0.000289157702402
0.000288000806526
0.000286824054174
0.000285620322021
0.000284382355885
0.000283102655508
0.000281773359938
0.000280386131904
0.000278932040048
0.000277401438415
0.000275783843458
0.000274067809947
0.00027224080898
0.000270289113596
0.000268197700972
0.000265950184449
0.000263528794274
0.000260914431878
0.000258086828425
0.000255024841438
0.000251706921156
0.000248111766424
0.000244219166351
0.000240010988878
0.000235472238707
0.000230592078459
0.000225364705915
0.000219790015749
0.00021387403705
0.000207629190892
0.000201074409425
0.000194235100113
0.000187142930945
0.000179835545747
0.000172356387447
0.000164754447144
0.000157083270382
0.000149398783528
0.000141756374252
0.000134208092795
0.000126800578587
0.000119574141645
0.000112563022942
0.000105796228863
9.92982777075e-05
9.30896293656e-05
8.71868500404e-05
8.16025350244e-05
7.63450098915e-05
7.14179512463e-05
6.68201457229e-05
6.25455532797e-05
5.85837221371e-05
5.49204995466e-05
5.15389262913e-05
4.84201888065e-05
4.55445193798e-05
4.2891968358e-05
4.04430106042e-05
3.81789809575e-05
3.60823556414e-05
3.41369075037e-05
3.23277657085e-05
3.06414078145e-05
2.90656073687e-05
2.7589354623e-05
2.62027631925e-05
2.48969713883e-05
2.36640440232e-05
2.24968782021e-05
2.13891151658e-05
2.03350591404e-05
1.93296035517e-05
1.83681644643e-05
1.74466209257e-05
1.65612616889e-05
1.5708737787e-05
1.48860203586e-05
1.40903631891e-05
1.33192694112e-05
1.25704618974e-05
1.18418568696e-05
1.11315403458e-05
1.04377470383e-05
9.7588414107e-06
9.09330060328e-06
8.43969902697e-06
7.79669445659e-06
7.16301557485e-06
6.53745101902e-06
5.91884021483e-06
5.30606655013e-06
4.69805385596e-06
4.09376743601e-06
3.49222037934e-06
2.89248189825e-06
2.29366893588e-06
1.69485235041e-06
1.09467905385e-06
4.90308563694e-07
5.77072162098e-09
0.000341054442569
0.000343244517696
0.000341501787378
0.000337526407746
0.000333071401966
0.000328855116392
0.000325067839417
0.000321704611108
0.000318708539933
0.000316019546535
0.000313586861623
0.000311369848995
0.000309335962744
0.000307458582948
0.000305715372458
0.00030408715635
0.000302557182646
0.000301110629459
0.000299734262085
0.000298416178775
0.000297145608811
0.000295912742296
0.000294708580294
0.000293524799103
0.000292353627686
0.00029118772818
0.000290020084814
0.000288843901194
0.000287652502366
0.000286439238387
0.000285197389921
0.000283920074407
0.000282600151405
0.000281230125783
0.000279802047443
0.000278307406506
0.000276737023149
0.000275080931819
0.000273328260455
0.00027146710673
0.000269484415533
0.000267365865163
0.000265095774353
0.000262657048494
0.00026003119104
0.000257198414263
0.00025413788989
0.000250828180935
0.000247247885842
0.000243376500083
0.000239195457763
0.000234689264573
0.000229846592343
0.000224661199403
0.000219132587481
0.000213266396303
0.000207074620112
0.000200575723047
0.000193794611188
0.000186762369379
0.000179515932731
0.000172098117398
0.000164557853408
0.000156949459576
0.000149330150522
0.000141756473659
0.000134280954536
0.000126949705568
0.000119801564655
0.000112868837186
0.000106178688962
9.975416965e-05
9.36146929381e-05
8.77762042833e-05
8.22510618117e-05
7.70475972276e-05
7.21695409034e-05
6.76156250525e-05
6.33795856134e-05
5.94506054242e-05
5.58141086453e-05
5.24527564254e-05
4.93474876148e-05
4.64784764645e-05
4.3825925378e-05
4.1370659177e-05
3.90945257925e-05
3.69806315942e-05
3.50134488199e-05
3.31788320604e-05
3.1463975141e-05
2.98573324712e-05
2.83485220417e-05
2.69282215822e-05
2.55880651513e-05
2.43205444343e-05
2.31189170235e-05
2.19771226596e-05
2.08897076258e-05
1.98517570189e-05
1.88588343737e-05
1.79069280001e-05
1.69924033568e-05
1.61119607941e-05
1.52625980392e-05
1.44415768398e-05
1.36463932382e-05
1.28747509961e-05
1.21245377407e-05
1.13938034443e-05
1.06807408901e-05
9.98366781346e-06
9.30101044264e-06
8.63128820315e-06
7.97309939441e-06
7.32510771191e-06
6.68602957052e-06
6.05462229141e-06
5.42967330794e-06
4.80999050236e-06
4.19439320476e-06
3.58170117022e-06
2.97071209695e-06
2.36013994467e-06
1.74844248366e-06
1.13338541356e-06
5.11133695439e-07
8.69285727854e-09
0.000331569106172
0.000334232650948
0.000333844143311
0.000331353815135
0.0003281150578
0.000324825057522
0.000321750663585
0.00031895514323
0.000316424845336
0.00031412467929
0.000312018597173
0.000310075540343
0.000308270095545
0.000306581582591
0.000304992920838
0.000303489680637
0.000302059384667
0.000300691019245
0.000299374696973
0.000298101420512
0.000296862911013
0.000295651476786
0.000294459906664
0.000293281378294
0.000292109379127
0.000290937625644
0.000289759987787
0.000288570419892
0.000287362890675
0.000286131312124
0.000284869467261
0.000283570935759
0.000282229016309
0.000280836644582
0.000279386305568
0.000277869939085
0.000276278837307
0.000274603533492
0.000272833681609
0.000270957927733
0.000268963775927
0.000266837454535
0.000264563793603
0.00026212613125
0.000259506276134
0.000256684564328
0.000253640059273
0.000250350948716
0.000246795184896
0.000242951386282
0.000238799966697
0.000234324389237
0.000229512381994
0.000224356936991
0.000218856972885
0.000213017673482
0.000206850649723
0.000200374070292
0.000193612676144
0.000186597425258
0.000179364985564
0.0001719579922
0.000164426078811
0.000156825620744
0.000149216699723
0.000141658540755
0.000134205366413
0.000126903532201
0.000119790701752
0.000112897316306
0.000106248818655
9.98669725705e-05
9.37703124559e-05
8.79743120226e-05
8.24912416519e-05
7.73295447701e-05
7.24929903968e-05
6.7980074109e-05
6.37839617896e-05
5.98929983393e-05
5.62916367532e-05
5.29615858514e-05
4.98829815717e-05
4.70354308106e-05
4.43988395022e-05
4.1953998509e-05
3.96829463174e-05
3.75691518045e-05
3.55975665105e-05
3.37545911357e-05
3.20279913753e-05
3.04067882079e-05
2.88811391017e-05
2.74422202236e-05
2.60821152043e-05
2.47937131816e-05
2.35706170195e-05
2.24070616409e-05
2.1297841828e-05
2.02382486435e-05
1.9224013512e-05
1.82512590512e-05
1.73164557728e-05
1.64163838863e-05
1.55480994926e-05
1.47089045688e-05
1.38963201879e-05
1.31080625122e-05
1.2342021127e-05
1.15962393547e-05
1.08688962037e-05
1.01582896641e-05
9.46282107012e-06
8.78098029786e-06
8.11133157391e-06
7.45249971647e-06
6.8031566262e-06
6.16200783319e-06
5.52777873586e-06
4.89919968741e-06
4.27498772709e-06
3.65381940667e-06
3.03428124087e-06
2.41476707143e-06
1.7932590949e-06
1.16688765874e-06
5.31177288319e-07
1.40514721889e-08
0.000324358908637
0.000327139303551
0.00032756455954
0.000326119110565
0.000323812011605
0.000321262100343
0.000318764217995
0.000316427076703
0.000314272360142
0.000312287679345
0.000310450692208
0.000308738704814
0.000307131784955
0.000305613262468
0.000304169328597
0.000302788431733
0.000301460720617
0.000300177602041
0.000298931411298
0.000297715173031
0.000296522428072
0.0002953471059
0.000294183427523
0.00029302582805
0.000291868894299
0.000290707303463
0.000289535764656
0.000288348970027
0.000287141541896
0.000285907978379
0.000284642596542
0.000283339471985
0.000281992373741
0.000280594693253
0.000279139366057
0.000277618784694
0.000276024701262
0.000274348118055
0.000272579165053
0.00027070696372
0.000268719478234
0.000266603358102
0.00026434378118
0.00026192431385
0.00025932681649
0.000256531436874
0.000253516749883
0.000250260113168
0.000246738305595
0.000242928486031
0.000238809445957
0.000234363037088
0.000229575566146
0.000224438915491
0.000218951220404
0.000213117122792
0.000206947847953
0.000200461383301
0.000193682623423
0.000186642877167
0.000179378905609
0.000171933365864
0.000164357222442
0.000156710349873
0.000149057554314
0.000141462471135
0.000133982372967
0.000126664625883
0.000119545818696
0.000112654370683
0.000106014043315
9.96454978494e-05
9.35665286713e-05
8.77922584745e-05
8.23350353015e-05
7.72035601125e-05
7.24016483713e-05
6.79273669606e-05
6.37729324541e-05
5.99253386317e-05
5.63674847341e-05
5.30795352109e-05
5.00402679626e-05
4.72282324542e-05
4.46226238543e-05
4.22038584639e-05
3.99538894647e-05
3.78563259488e-05
3.5896419611e-05
3.40609726866e-05
3.23382062778e-05
3.07176147824e-05
2.91898217995e-05
2.77464456553e-05
2.63799781544e-05
2.50836774455e-05
2.38514744811e-05
2.26778918413e-05
2.15579734793e-05
2.04872239125e-05
1.94615555151e-05
1.84772426939e-05
1.75308819108e-05
1.66193566453e-05
1.57398065418e-05
1.48896000806e-05
1.4066310228e-05
1.32676925784e-05
1.24916655847e-05
1.17362925079e-05
1.09997647716e-05
1.02803864271e-05
9.57655946936e-06
8.8867697466e-06
8.20957322258e-06
7.54358231662e-06
6.88745199354e-06
6.23986509575e-06
5.59951603426e-06
4.96509108404e-06
4.33524168481e-06
3.70854325194e-06
3.08342423176e-06
2.45803585955e-06
1.8300117175e-06
1.19604994048e-06
5.512861798e-07
2.23052550909e-08
0.000318728427872
0.000321462826525
0.000322372311623
0.000321662045211
0.000320070373757
0.000318118712377
0.000316097886602
0.000314141867277
0.00031229852222
0.00031057490153
0.00030896144015
0.000307443478234
0.000306006167585
0.000304636225059
0.000303322302752
0.000302054819706
0.000300825633509
0.000299627707231
0.000298454825405
0.000297301369346
0.000296162145483
0.000295032255711
0.000293906998879
0.000292781795518
0.000291652127306
0.000290513483332
0.000289361308384
0.000288190963028
0.000286997679924
0.000285776518988
0.000284522319875
0.000283229650453
0.00028189274991
0.000280505465051
0.00027906117812
0.000277552724278
0.00027597229659
0.00027431133618
0.000272560405145
0.000270709040209
0.000268745586197
0.000266657011021
0.000264428708727
0.000262044305676
0.000259485498136
0.000256731968257
0.000253761447599
0.000250550017438
0.000247072740028
0.000243304686977
0.000239222353396
0.000234805322489
0.000230037913618
0.000224910482643
0.000219420124398
0.00021357079185
0.000207373224707
0.000200845226975
0.000194012143091
0.000186906221229
0.000179564644997
0.000172029937815
0.000164354849356
0.000156604573229
0.000148851027332
0.000141164366509
0.000133606551091
0.000126226840956
0.000119060602717
0.000112133763341
0.000105468421
9.90843769702e-05
9.29987685414e-05
8.7226409073e-05
8.17798844356e-05
7.66683263585e-05
7.18955952618e-05
6.74590758728e-05
6.33495640972e-05
5.95520914592e-05
5.60473348205e-05
5.2813259757e-05
4.98266975573e-05
4.70646449816e-05
4.45051895444e-05
4.21280648202e-05
3.99149029314e-05
3.7849273028e-05
3.59165881189e-05
3.4103943749e-05
3.23999312852e-05
3.07944514747e-05
2.92785416756e-05
2.78442224241e-05
2.64843644735e-05
2.51925751644e-05
2.39631019527e-05
2.27907506894e-05
2.16708163116e-05
2.0599023889e-05
1.95714782468e-05
1.85846206935e-05
1.76351916238e-05
1.67201979979e-05
1.58368848597e-05
1.49827102184e-05
1.41553227144e-05
1.33525415991e-05
1.25723386136e-05
1.18128214208e-05
1.10722182733e-05
1.03488636407e-05
9.64118452414e-06
8.94768719475e-06
8.26694405833e-06
7.59758029046e-06
6.93825973555e-06
6.28766928031e-06
5.64450033975e-06
5.00742499484e-06
4.37506221035e-06
3.74592564458e-06
3.11833766007e-06
2.49028334843e-06
1.85916576212e-06
1.22142108895e-06
5.71988767251e-07
3.3749512967e-08
0.00031424314396
0.000316860825209
0.000318051410633
0.000317857409239
0.000316814367241
0.000315347850109
0.000313726465623
0.000312093828687
0.000310515094043
0.000309012714558
0.000307588420406
0.000306235170049
0.000304943089851
0.00030370215934
0.000302503254377
0.000301338415935
0.000300200786388
0.00029908442732
0.00029798411605
0.00029689516039
0.000295813243864
0.000294734301575
0.000293654422219
0.000292569773598
0.000291476539964
0.000290370869058
0.000289248823774
0.000288106344162
0.000286939207915
0.000285742990143
0.000284513020793
0.000283244338094
0.000281931636443
0.000280569206972
0.000279150868812
0.000277669888723
0.000276118886296
0.000274489721492
0.000272773360824
0.000270959718392
0.000269037468525
0.000266993828769
0.000264814316553
0.000262482491661
0.000259979711805
0.000257284951634
0.000254374765994
0.000251223510085
0.000247803946911
0.000244088349908
0.00024005011768
0.000235665751953
0.000230916856483
0.000225791698926
0.000220285957603
0.000214402628193
0.000208151679313
0.000201550487921
0.000194625068757
0.000187409454705
0.000179941653192
0.000172263273184
0.000164429009791
0.000156511955449
0.00014859443875
0.000140755798916
0.000133064826627
0.000125573897566
0.000118316647649
0.0001113155457
0.000104591135507
9.8162755271e-05
9.20468218613e-05
8.6257691839e-05
8.08083060474e-05
7.57084077003e-05
7.09618413607e-05
6.65649223183e-05
6.25063891398e-05
5.87685380496e-05
5.53290169872e-05
5.21628370026e-05
4.92442354237e-05
4.65481418786e-05
4.40511511596e-05
4.17320379557e-05
3.9571920215e-05
3.75541931259e-05
3.56643373561e-05
3.38896752256e-05
3.22191203238e-05
3.06429447985e-05
2.91525746747e-05
2.77404154697e-05
2.63997062749e-05
2.51243987311e-05
2.39090569425e-05
2.27487745884e-05
2.16391060042e-05
2.05760085321e-05
1.95557939672e-05
1.85750873431e-05
1.76307916734e-05
1.67200575296e-05
1.58402565778e-05
1.49889583486e-05
1.41639096658e-05
1.33630162471e-05
1.25843260791e-05
1.18260142178e-05
1.10863687146e-05
1.03637773838e-05
9.65671514431e-06
8.96373163921e-06
8.28343879822e-06
7.61449788771e-06
6.95560539566e-06
6.30547671149e-06
5.66282588064e-06
5.02633848095e-06
4.39463252496e-06
3.76619865304e-06
3.1393051825e-06
2.5118459186e-06
1.88110199557e-06
1.24339267291e-06
5.93619208908e-07
4.85506835762e-08
0.00031061995257
0.000313093712702
0.000314438686346
0.000314605619848
0.000313982037445
0.000312908523052
0.000311623043896
0.000310268007674
0.000308918228281
0.000307607370365
0.00030634653224
0.000305135563526
0.000303969364586
0.00030284114489
0.000301743974619
0.00030067143129
0.000299617792748
0.000298578019354
0.000297547650783
0.000296522679053
0.000295499425731
0.000294474434152
0.000293444378781
0.000292405994476
0.000291356014995
0.000290291117441
0.000289207877454
0.000288102730631
0.000286971934538
0.000285811530483
0.000284617303268
0.000283384737178
0.000282108966375
0.000280784717691
0.000279406243471
0.000277967241658
0.000276460759627
0.000274879077551
0.00027321356616
0.000271454513093
0.000269590911792
0.000267610208046
0.000265498003093
0.00026323772092
0.000260810263949
0.000258193709022
0.000255363135748
0.000252290726993
0.000248946318657
0.000245298566889
0.000241316798791
0.000236973393821
0.000232246260414
0.000227120775345
0.000221590612731
0.000215657326486
0.000209329491628
0.000202623313057
0.000195565438215
0.000188193027987
0.00018054563414
0.000172661970493
0.00016459825439
0.000156439575175
0.000148283509247
0.000140221981406
0.000132333617924
0.000124675954464
0.00011727978266
0.000110162251769
0.000103342813493
9.68410374983e-05
9.06721675278e-05
8.48495368441e-05
7.93864498e-05
7.42934137288e-05
6.95740524246e-05
6.52229850525e-05
6.12259998614e-05
5.75616543563e-05
5.42035748533e-05
5.11229320588e-05
4.82906516947e-05
4.56790647179e-05
4.32629101604e-05
4.10197735475e-05
3.89301225834e-05
3.69771041229e-05
3.51462300058e-05
3.34250350319e-05
3.18027532888e-05
3.02700337033e-05
2.88187004761e-05
2.74415562526e-05
2.61322224958e-05
2.48850107223e-05
2.36948185935e-05
2.25570457331e-05
2.14675250577e-05
2.04224663031e-05
1.94184091363e-05
1.84521838522e-05
1.7520878089e-05
1.66218083654e-05
1.57524954895e-05
1.49106431038e-05
1.40941187692e-05
1.33009371124e-05
1.25292446366e-05
1.17773058621e-05
1.10434904971e-05
1.03262613636e-05
9.62416279761e-06
8.93580921536e-06
8.25987345891e-06
7.59507439854e-06
6.94016301059e-06
6.29390571767e-06
5.65506302568e-06
5.02236024606e-06
4.3944450443e-06
3.76982338544e-06
3.14676095843e-06
2.52313201511e-06
1.89619457256e-06
1.26227639247e-06
6.16376872603e-07
6.67618574616e-08
0.000307666845442
0.000309989618646
0.000311408910289
0.000311826042786
0.000311521875971
0.000310765757709
0.0003097627629
0.000308647289841
0.000307497850069
0.000306355460765
0.000305238488827
0.000304152692832
0.000303097368087
0.000302068852494
0.000301062406048
0.00030007314669
0.000299096463865
0.000298128156493
0.000297164434379
0.000296201858768
0.000295237261595
0.000294267662944
0.000293290195081
0.000292302039883
0.000291300372402
0.00029028230457
0.000289244844397
0.00028818485717
0.000287099028434
0.00028598382692
0.000284835465657
0.000283649859469
0.000282422576884
0.000281148784238
0.000279823179299
0.000278439911097
0.000276992481797
0.000275473625273
0.000273875155727
0.000272187778199
0.000270400851659
0.000268502095235
0.000266477230665
0.000264309561833
0.00026197950947
0.000259464151019
0.000256736866732
0.000253767261205
0.000250521596027
0.000246963986585
0.000243058510769
0.00023877209321
0.00023407761856
0.000228956405752
0.000223399189077
0.000217405232121
0.000210980505819
0.000204138277944
0.000196905020013
0.000189323227829
0.00018143564748
0.000173273667583
0.000164893368039
0.00015639906752
0.000147911048091
0.000139538082919
0.000131373136018
0.000123482880085
0.000115893013882
0.000108611705941
0.000101658741228
9.50550872733e-05
8.88133637693e-05
8.2944438761e-05
7.74617815979e-05
7.23767295376e-05
6.76921963877e-05
6.34000928509e-05
5.94820076733e-05
5.59114673893e-05
5.26568680458e-05
4.96845182441e-05
4.69612588455e-05
4.44563016366e-05
4.21422227343e-05
3.99952675208e-05
3.7995204212e-05
3.61249415003e-05
3.43700633052e-05
3.2718370963e-05
3.1159476514e-05
2.9684461609e-05
2.82856010058e-05
2.69561427011e-05
2.56901347481e-05
2.44822891687e-05
2.3327874741e-05
2.22226319913e-05
2.11627052039e-05
2.01445874573e-05