/*--------------------------------*- C++ -*----------------------------------*\
  =========                 |
  \\      /  F ield         | OpenFOAM: The Open Source CFD Toolbox
   \\    /   O peration     | Website:  https://openfoam.org
    \\  /    A nd           | Version:  7
     \\/     M anipulation  |
\*---------------------------------------------------------------------------*/
FoamFile
{
    version     2.0;
    format      ascii;
    class       surfaceScalarField;
    location    "720";
    object      phi;
}
// * * * * * * * * * * * * * * * * * * * * * * * * * * * * * * * * * * * * * //

dimensions      [0 3 -1 0 0 0 0];

internalField   nonuniform List<scalar> 
16192
(
6.92888613607e-10
2.44611386393e-10
4.93494125322e-10
1.99394483364e-10
3.64747445202e-10
1.28746675252e-10
2.82184296355e-10
8.25631440652e-11
2.27605173032e-10
5.45791183693e-11
1.90061327948e-10
3.7543840018e-11
1.63205140383e-10
2.68561824668e-11
1.43319840307e-10
1.98852950051e-11
1.28168065751e-10
1.51517695471e-11
1.16355255315e-10
1.18128055203e-11
1.069796635e-10
9.37558700878e-12
9.94371035906e-11
7.54255523496e-12
9.33093067331e-11
6.12779232266e-12
8.82981897554e-11
5.01111260271e-12
8.41859275205e-11
4.11225802861e-12
8.08099327172e-11
3.37599078889e-12
7.8046701536e-11
2.76322736907e-12
7.58010884838e-11
2.24560946981e-12
7.39990012684e-11
1.80208387485e-12
7.25823090803e-11
1.41668912114e-12
7.15052196979e-11
1.07708660228e-12
7.07316545396e-11
7.73562701442e-13
7.02333162939e-11
4.98336126647e-13
6.99882470184e-11
2.4506753547e-13
6.99797395426e-11
8.50613027801e-15
7.01955076506e-11
-2.15769011951e-13
7.06270466236e-11
-4.31539418767e-13
7.12691371071e-11
-6.42090417936e-13
7.21194573698e-11
-8.50319667797e-13
7.31782757016e-11
-1.05881714742e-12
7.44482002023e-11
-1.26992270764e-12
7.59339673108e-11
-1.48576463907e-12
7.76422515511e-11
-1.7082810746e-12
7.95814801192e-11
-1.93922463106e-12
8.17616346562e-11
-2.18014980907e-12
8.41940220021e-11
-2.43238174571e-12
8.68909930135e-11
-2.69696452284e-12
8.98655873607e-11
-2.97458688531e-12
9.31310795213e-11
-3.26548371676e-12
9.6700401554e-11
-3.56931252291e-12
1.00585418624e-10
-3.88500649922e-12
1.04796039358e-10
-4.21060902602e-12
1.09339151819e-10
-4.54309963935e-12
1.14217393477e-10
-4.8782276584e-12
1.19427785582e-10
-5.21037697924e-12
1.24960293493e-10
-5.53249160908e-12
1.30796405947e-10
-5.83609505986e-12
1.36907858171e-10
-6.11143370881e-12
1.43255641004e-10
-6.34776332176e-12
1.49789438643e-10
-6.53377713991e-12
1.56447607451e-10
-6.65814750891e-12
1.63157756243e-10
-6.71012677123e-12
1.69837917444e-10
-6.68013875351e-12
1.7639823678e-10
-6.56029665468e-12
1.82743068519e-10
-6.34480927063e-12
1.88773363488e-10
-6.03027304814e-12
1.94389260773e-10
-5.61587651053e-12
1.99492831951e-10
-5.10355198243e-12
2.03990954921e-10
-4.49810601089e-12
2.07798326139e-10
-3.80735690062e-12
2.10840631053e-10
-3.04229379695e-12
2.13057832497e-10
-2.2171937487e-12
2.14407329585e-10
-1.34949314648e-12
2.14866469031e-10
-4.5913923117e-13
2.14433766331e-10
4.32699074753e-13
2.13128405329e-10
1.30535373162e-12
2.10988048835e-10
2.14034556458e-12
2.08065435932e-10
2.92259858168e-12
2.04424534464e-10
3.64088383215e-12
2.00137009204e-10
4.28750470057e-12
1.95279468801e-10
4.85751715498e-12
1.89931577746e-10
5.34786565466e-12
1.84174837214e-10
5.75671333824e-12
1.7809172017e-10
6.08308864933e-12
1.71764837525e-10
6.32685342945e-12
1.65275888128e-10
6.48891991169e-12
1.58704275278e-10
6.57158340829e-12
1.52125433927e-10
6.57881239723e-12
1.45609041448e-10
6.51636421531e-12
1.39217350905e-10
6.39166328527e-12
1.33003870186e-10
6.213454561e-12
1.2701254357e-10
5.99130175483e-12
1.21277495785e-10
5.73502422602e-12
1.15823310942e-10
5.45416269476e-12
1.1066575002e-10
5.15754012846e-12
1.05812777153e-10
4.85295347732e-12
1.01265756748e-10
4.54700232687e-12
9.70207006064e-11
4.24503938443e-12
9.30694696347e-11
3.95121542558e-12
8.94008670891e-11
3.66858819763e-12
8.6001586894e-11
3.39926693153e-12
8.28570046846e-11
3.14457000681e-12
7.99518138737e-11
2.90517955906e-12
7.72705204496e-11
2.68128309755e-12
7.47978141567e-11
2.47269678994e-12
7.25188366687e-11
2.27896878516e-12
7.0419365689e-11
2.09946298611e-12
6.84859331991e-11
1.93342518532e-12
6.67058926236e-11
1.78003387981e-12
6.50674481044e-11
1.63843841585e-12
6.3559655708e-11
1.50778681489e-12
6.2172405094e-11
1.38724554099e-12
6.08963874688e-11
1.27601299816e-12
5.97230548905e-11
1.17332838665e-12
5.86445739594e-11
1.07847711913e-12
5.7653776622e-11
9.90793896707e-13
5.67441092831e-11
9.09664219757e-13
5.59095813855e-11
8.34525093261e-13
5.51447133817e-11
7.64865469658e-13
5.44444840686e-11
7.0022704428e-13
5.38042761127e-11
6.40205912172e-13
5.32198185197e-11
5.84455771231e-13
5.26871234889e-11
5.32693395079e-13
5.22024145871e-11
4.84707450511e-13
5.17620412455e-11
4.40372042515e-13
5.1362372979e-11
3.99667119669e-13
5.09996631161e-11
3.62708839641e-13
5.06698673823e-11
3.2979483613e-13
5.03683943912e-11
3.01472194404e-13
5.00897525985e-11
2.78641102673e-13
4.98270361806e-11
2.62715815985e-13
4.95711562909e-11
2.55879389354e-13
4.93096648586e-11
2.6149102732e-13
4.9024937472e-11
2.84727105333e-13
4.86914384687e-11
3.33498856585e-13
4.82722444501e-11
4.19194042201e-13
4.7717955269e-11
5.5428937779e-13
7.11257524669e-13
9.53373658674e-10
2.28737723032e-10
8.59586974444e-10
2.93181157872e-10
7.45064332375e-10
2.43269307649e-10
6.41960891497e-10
1.85666575145e-10
5.56902828873e-10
1.39637170946e-10
4.88682237505e-10
1.05764421233e-10
4.34270357261e-10
8.12680525733e-11
3.90708205639e-10
6.3447436587e-11
3.55577126499e-10
5.02828388003e-11
3.27016760657e-10
4.03731616706e-11
3.03625140446e-10
3.27671977562e-11
2.84348785954e-10
2.68189005237e-11
2.68391843106e-10
2.20847262514e-11
2.55147635574e-10
1.82553115325e-11
2.44148926229e-10
1.51109591171e-11
2.35032204919e-10
1.24927042261e-11
2.27512052253e-10
1.02833725754e-11
2.21362627275e-10
8.39502744687e-12
2.16404177571e-10
6.76052707121e-12
2.12493105371e-10
5.3277553581e-12
2.09514571542e-10
4.05561505183e-12
2.07376929446e-10
2.91120005585e-12
2.06007492572e-10
1.86776894346e-12
2.05349285393e-10
9.03271402982e-13
2.05358526417e-10
-7.37411422544e-16
2.06002661241e-10
-8.59905489808e-13
2.07258809734e-10
-1.68768864741e-12
2.09112529112e-10
-2.49580953574e-12
2.11556815225e-10
-3.29460446658e-12
2.14591279323e-10
-4.0932787884e-12
2.18221448085e-10
-4.90008780603e-12
2.22458141846e-10
-5.72245343422e-12
2.2731688883e-10
-6.5670217214e-12
2.32817334777e-10
-7.43966276586e-12
2.38982605907e-10
-8.34541158225e-12
2.45838581716e-10
-9.28834654365e-12
2.53413030678e-10
-1.02714007532e-11
2.61734560279e-10
-1.12961019292e-11
2.70831331064e-10
-1.23622380637e-11
2.80729487452e-10
-1.34674504964e-11
2.91451264636e-10
-1.46067632573e-11
3.0301274701e-10
-1.57720688884e-11
3.15421277958e-10
-1.69516059841e-11
3.28672559465e-10
-1.81294824245e-11
3.42747528992e-10
-1.92853176612e-11
3.57609162262e-10
-2.03940939227e-11
3.73199412551e-10
-2.14263123701e-11
3.89436553008e-10
-2.23485392143e-11
4.06213217581e-10
-2.31243911478e-11
4.23395428007e-10
-2.37159491829e-11
4.40822832973e-10
-2.40855127865e-11
4.58310280446e-10
-2.41975335954e-11
4.7565070918e-10
-2.40205264459e-11
4.92619222727e-10
-2.3528769378e-11
5.08978127972e-10
-2.27036747575e-11
5.24482706686e-10
-2.1534813931e-11
5.38887522297e-10
-2.00206572605e-11
5.5195311791e-10
-1.81691166566e-11
5.63452999845e-10
-1.59979619298e-11
5.73180832584e-10
-1.35351693121e-11
5.80957772385e-10
-1.08192196466e-11
5.86639752192e-10
-7.89916633844e-12
5.90124187117e-10
-4.83392783569e-12
5.91355126195e-10
-1.69008500803e-12
5.90325705224e-10
1.46210647892e-12
5.87077154295e-10
4.55388448902e-12
5.81694441978e-10
7.52303133002e-12
5.7429944355e-10
1.0317564506e-11
5.65043041926e-10
1.28972474432e-11
5.54097565873e-10
1.5232937934e-11
5.41650467298e-10
1.73045688253e-11
5.27899474326e-10
1.9098808558e-11
5.13048949594e-10
2.06071856889e-11
4.97306945275e-10
2.18250392189e-11
4.80882406779e-10
2.27513375936e-11
4.63982090299e-10
2.33891822863e-11
4.46806987321e-10
2.37466331038e-11
4.29548335614e-10
2.38374122345e-11
4.12383533698e-10
2.36811160466e-11
3.95472397673e-10
2.33027513766e-11
3.78954180109e-10
2.2731626516e-11
3.62945651075e-10
2.19997876873e-11
3.47540367569e-10
2.11402671647e-11
3.32809089073e-10
2.01854032105e-11
3.18801163126e-10
1.91654306128e-11
3.05546629372e-10
1.81074542585e-11
2.93058766611e-10
1.70348344782e-11
2.81336829118e-10
1.5966948559e-11
2.7036876353e-10
1.49192548345e-11
2.60133755916e-10
1.3903571678e-11
2.50604513071e-10
1.29284875326e-11
2.41749230744e-10
1.19998318805e-11
2.33533236627e-10
1.11211548661e-11
2.25920321951e-10
1.02941805151e-11
2.18873789731e-10
9.51921316747e-12
2.12357256268e-10
8.79548774371e-12
2.06335243772e-10
8.1214621938e-12
2.0077360161e-10
7.49505520877e-12
1.95639789424e-10
6.91383497183e-12
1.90903051951e-10
6.37516578202e-12
1.86534509962e-10
5.87631959227e-12
1.82507188112e-10
5.41455902395e-12
1.78795995736e-10
4.98719777296e-12
1.75377673778e-10
4.59164346454e-12
1.72230717388e-10
4.22542728015e-12
1.69335281747e-10
3.88622392197e-12
1.66673075963e-10
3.57186493702e-12
1.64227248597e-10
3.28034790939e-12
1.61982266234e-10
3.00984374416e-12
1.59923785598e-10
2.75870402446e-12
1.58038517824e-10
2.52547041303e-12
1.56314082558e-10
2.30888812273e-12
1.54738847561e-10
2.10792579427e-12
1.53301748153e-10
1.92180455557e-12
1.51992078333e-10
1.75003981877e-12
1.50799243247e-10
1.59250040359e-12
1.49712459385e-10
1.4494911132e-12
1.48720385993e-10
1.32186684328e-12
1.47810668202e-10
1.21118878198e-12
1.46969372728e-10
1.1199355587e-12
1.46180305349e-10
1.05178235832e-12
1.45424232176e-10
1.01195193012e-12
1.44678121262e-10
1.00760153336e-12
1.43914776122e-10
1.04807210502e-12
1.43103906361e-10
1.14436875899e-12
1.42217338369e-10
1.30576241397e-12
1.41246393989e-10
1.52523418028e-12
1.72663715845e-12
9.76216190575e-10
1.90021527595e-10
9.62995155466e-10
3.06402182774e-10
9.06165751674e-10
3.00098701391e-10
8.33897052413e-10
2.57935264407e-10
7.61182954537e-10
2.12351258643e-10
6.94431285048e-10
1.72516080461e-10
6.35708548681e-10
1.39990778691e-10
5.85115189731e-10
1.14040785371e-10
5.41964869472e-10
9.34331490192e-11
5.05333807999e-10
7.70042132696e-11
4.74299327388e-10
6.38016686825e-11
4.48031520002e-10
5.30866984475e-11
4.25818543356e-10
4.42976936752e-11
4.07063916203e-10
3.70099297371e-11
3.91273558481e-10
3.09013081853e-11
3.78040431823e-10
2.57258225633e-11
3.67030000483e-10
2.12937959499e-11
3.57967619876e-10
1.74574004896e-11
3.50628041685e-10
1.41000981228e-11
3.44826861387e-10
1.11289289949e-11
3.40413619814e-10
8.46885046668e-12
3.37266262838e-10
6.05855143497e-12
3.35286694917e-10
3.84733185876e-12
3.34397205288e-10
1.79275668176e-12
3.34537586164e-10
-1.41121950538e-13
3.35662796967e-10
-1.98511919589e-12
3.37741055801e-10
-3.76594958956e-12
3.40752267882e-10
-5.50702284648e-12
3.44686709739e-10
-7.22904663943e-12
3.49543901856e-10
-8.95047021221e-12
3.55331609875e-10
-1.06877940826e-11
3.62064919892e-10
-1.24557605545e-11
3.69765334619e-10
-1.42674323554e-11
3.78459837928e-10
-1.6134160668e-11
3.88179872736e-10
-1.80654396275e-11
3.98960175541e-10
-2.00686411063e-11
4.1083740716e-10
-2.21486226111e-11
4.23848518564e-10
-2.43072019267e-11
4.3802879038e-10
-2.65424968012e-11
4.53409491184e-10
-2.88481364279e-11
4.70015110856e-10
-3.12123662573e-11
4.87860148962e-10
-3.36170884136e-11
5.06945471763e-10
-3.60369083215e-11
5.27254302806e-10
-3.84382910298e-11
5.48747975069e-10
-4.07789655779e-11
5.7136165042e-10
-4.30077429552e-11
5.95000289232e-10
-4.50649230081e-11
6.19535222456e-10
-4.68834423901e-11
6.44801713178e-10
-4.83908501426e-11
6.70597883084e-10
-4.95120857545e-11
6.96685299418e-10
-5.01728945154e-11
7.22791381947e-10
-5.03035804846e-11
7.48613612684e-10
-4.98427210714e-11
7.73825368327e-10
-4.87404889161e-11
7.98083084414e-10
-4.6961355588e-11
8.21034438316e-10
-4.44861341474e-11
8.42327277183e-10
-4.1313465061e-11
8.61619076622e-10
-3.74608884655e-11
8.78586743858e-10
-3.29656060083e-11
8.92936603923e-10
-2.78850113438e-11
9.04414430928e-10
-2.2297034497e-11
9.12815299316e-10
-1.63000287195e-11
9.17992616532e-10
-1.00112455304e-11
9.19865084871e-10
-3.56256017664e-12
9.18420075749e-10
2.90710241464e-12
9.13712427883e-10
9.26151318675e-12
9.05858772517e-10
1.53766617114e-11
8.95028549782e-10
2.11477569639e-11
8.81433545022e-10
2.64922169988e-11
8.65317763961e-10
3.13486796203e-11
8.46948792678e-10
3.56734971693e-11
8.2661092076e-10
3.94366349038e-11
8.04599691984e-10
4.26183669627e-11
7.81217288835e-10
4.52073938584e-11
7.56768112586e-10
4.72004649604e-11
7.31554043777e-10
4.86032026158e-11
7.05869141412e-10
4.94314878605e-11
6.79993898645e-10
4.97126088293e-11
6.54189470364e-10
4.94854998614e-11
6.28692435202e-10
4.87997441383e-11
6.03710622757e-10
4.77133987239e-11
5.79420381544e-10
4.62899910165e-11
5.55965442838e-10
4.45951703087e-11
5.33457323344e-10
4.26934895355e-11
5.11977040761e-10
4.06456823077e-11
4.91577820095e-10
3.85066463107e-11
4.72288436044e-10
3.63241920334e-11
4.541168613e-10
3.4138498874e-11
4.37053944625e-10
3.19821489778e-11
4.21076914047e-10
2.98805815506e-11
4.06152568555e-10
2.78528139744e-11
3.92240083602e-10
2.59122993665e-11
3.79293401852e-10
2.40678205757e-11
3.67263215932e-10
2.23243517543e-11
3.56098570721e-10
2.06838449174e-11
3.45748126249e-10
1.91459199194e-11
3.36161126421e-10
1.77084507676e-11
3.27288120223e-10
1.63680511488e-11
3.19081478356e-10
1.51204674716e-11
3.11495744823e-10
1.3960890802e-11
3.0448785694e-10
1.28841997228e-11
2.98017262857e-10
1.18851460856e-11
2.92045959813e-10
1.09584944437e-11
2.86538472612e-10
1.00991249165e-11
2.81461786976e-10
9.30210771673e-12
2.76785249704e-10
8.56275652427e-12
2.7248044381e-10
7.87666662442e-12
2.6852104494e-10
7.23974301765e-12
2.64882662448e-10
6.64822286186e-12
2.61542667159e-10
6.09869631155e-12
2.58480005474e-10
5.58812941582e-12
2.55674998366e-10
5.11389285614e-12
2.53109121715e-10
4.673800332e-12
2.50764763494e-10
4.26616091536e-12
2.48624951578e-10
3.88985008503e-12
2.46673045656e-10
3.54440488334e-12
2.44892386561e-10
3.23014893601e-12
2.43265899366e-10
2.94835293652e-12
2.41775653323e-10
2.7014338684e-12
2.40402398642e-10
2.49318943803e-12
2.39125134344e-10
2.32904600071e-12
2.37920831611e-10
2.216254184e-12
2.36764572877e-10
2.16385998518e-12
2.35630624495e-10
2.1820204552e-12
2.3449540378e-10
2.27958972164e-12
2.3334398344e-10
2.45718319247e-12
2.32180613996e-10
2.68860410465e-12
2.87624509664e-12
9.71778001292e-10
1.5574352139e-10
9.86741632545e-10
2.91438540843e-10
9.68335737908e-10
3.18504585639e-10
9.28180345088e-10
2.98090646779e-10
8.78129393702e-10
2.62402199352e-10
8.25703110234e-10
2.24942353144e-10
7.75049123076e-10
1.90644755054e-10
7.2819846258e-10
1.60891435124e-10
6.85963254622e-10
1.35668346325e-10
6.48493615501e-10
1.1447384186e-10
6.15603475647e-10
9.66917981501e-11
5.86954303802e-10
8.17358600731e-11
5.62155294474e-10
6.90966929711e-11
5.40815746404e-10
5.83494679864e-11
5.22570653065e-10
4.91463919357e-11
5.07091614209e-10
4.12048520912e-11
4.94089939956e-10
3.42954611592e-11
4.8331579476e-10
2.82315369586e-11
4.74555502003e-10
2.28603824962e-11
4.67628153213e-10
1.80562697789e-11
4.62382117747e-10
1.37148783328e-11
4.58691744708e-10
9.74891732064e-12
4.56454382271e-10
6.08468761912e-12
4.55587750743e-10
2.65938205454e-12
4.56027659407e-10
-5.81036214804e-13
4.57726032354e-10
-3.68349714099e-12
4.60649201239e-10
-6.68912282948e-12
4.64776424327e-10
-9.63424959403e-12
4.70098579557e-10
-1.25512047879e-11
4.76616984635e-10
-1.54688774072e-11
4.84342296401e-10
-1.84131071144e-11
4.93293440858e-10
-2.14069053558e-11
5.03496522956e-10
-2.44705138201e-11
5.14983662719e-10
-2.76212987406e-11
5.27791700392e-10
-3.08734744907e-11
5.41960709974e-10
-3.42376466711e-11
5.57532256863e-10
-3.77201642098e-11
5.74547334277e-10
-4.13222726862e-11
5.9304391429e-10
-4.50390687281e-11
6.13054056825e-10
-4.88582693555e-11
6.34600534339e-10
-5.27588325841e-11
6.57692956367e-10
-5.6709497591e-11
6.8232341738e-10
-6.06673547766e-11
7.08461748317e-10
-6.45766056332e-11
7.36050524469e-10
-6.8367723599e-11
7.65000069665e-10
-7.19572681769e-11
7.95183787124e-10
-7.52486186578e-11
8.26434228139e-10
-7.81338597554e-11
8.58540355344e-10
-8.04969519239e-11
8.91246446258e-10
-8.22181495473e-11
9.24252993296e-10
-8.31794129186e-11
9.57219791925e-10
-8.32703491967e-11
9.89771193602e-10
-8.23940919389e-11
1.02150329394e-09
-8.04725580341e-11
1.05199268988e-09
-7.74507205445e-11
1.08080641505e-09
-7.3299829332e-11
1.10751272422e-09
-6.80197461399e-11
1.13169246932e-09
-6.16406082553e-11
1.15295082406e-09
-5.42239391532e-11
1.17092912517e-09
-4.58632953787e-11
1.18531669107e-09
-3.66845885331e-11
1.19586249679e-09
-2.68458282515e-11
1.20238610162e-09
-1.6534850126e-11
1.20478629303e-09
-5.96275735034e-12
1.2030454296e-09
4.6479541932e-12
1.1972281453e-09
1.50787802237e-11
1.18747452566e-09
2.51302587825e-11
1.17398923304e-09
3.46330221353e-11
1.15702889596e-09
4.34525222733e-11
1.13689003861e-09
5.14875014431e-11
1.11389889365e-09
5.8664603616e-11
1.08840328781e-09
6.49322000424e-11
1.0607661051e-09
7.02555075351e-11
1.03135962735e-09
7.46138288018e-11
1.00056003447e-09
7.80000149913e-11
9.68741470178e-10
8.04217246451e-11
9.36269401717e-10
8.190351509e-11
9.03493444674e-10
8.24885260886e-11
8.70740186971e-10
8.22387194986e-11
8.38306705704e-10
8.12331892913e-11
8.06455412596e-10
7.95646577808e-11
7.75410660578e-10
7.73347111377e-11
7.45357277431e-10
7.4648523708e-11
7.16440940614e-10
7.16097987477e-11
6.88770115738e-10
6.83164816421e-11
6.62419173785e-10
6.4857564721e-11
6.37432271964e-10
6.13110721902e-11
6.13827614316e-10
5.77431366422e-11
5.91601773634e-10
5.42079714291e-11
5.7073383727e-10
5.07485012311e-11
5.51189217399e-10
4.73974185762e-11
5.32923034905e-10
4.41784679088e-11
5.1588303878e-10
4.11078039468e-11
5.00012062062e-10
3.8195316833e-11
4.85250040227e-10
3.54458561242e-11
4.71535633456e-10
3.28603170051e-11
4.58807500777e-10
3.04365746173e-11
4.47005276234e-10
2.81702676616e-11
4.3607029484e-10
2.60554415625e-11
4.25946112509e-10
2.40850665107e-11
4.16578858684e-10
2.22514475445e-11
4.07917455364e-10
2.05465439825e-11
3.99913730535e-10
1.89622143771e-11
3.92522449413e-10
1.74904016355e-11
3.85701282096e-10
1.61232710767e-11
3.79410722575e-10
1.48533125058e-11
3.73613970314e-10
1.36734157199e-11
3.68276782944e-10
1.25769275721e-11
3.63367305733e-10
1.15576975682e-11
3.58855881622e-10
1.06101182074e-11
3.54714843412e-10
9.72916566627e-12
3.50918288403e-10
8.91044614154e-12
3.47441834253e-10
8.15025296725e-12
3.44262354231e-10
7.44563961302e-12
3.41357689652e-10
6.79451350662e-12
3.38706338332e-10
6.1957552002e-12
3.36287120417e-10
5.64936598112e-12
3.34078828894e-10
5.15664371597e-12
3.32059882873e-10
4.72037926027e-12
3.30208021603e-10
4.34505019512e-12
3.28500110741e-10
4.03695647136e-12
3.26912188057e-10
3.80417662229e-12
3.25419961438e-10
3.65608653996e-12
3.24000086921e-10
3.6018951343e-12
3.22632644896e-10
3.6470321178e-12
3.21304904412e-10
3.7849241607e-12
3.20014031407e-10
3.97947756577e-12
4.13435780829e-12
9.63993587132e-10
1.29249928717e-10
9.87882381969e-10
2.6754973453e-10
9.9018607246e-10
3.16200883941e-10
9.72984929362e-10
3.15291778766e-10
9.4321747273e-10
2.92169644688e-10
9.0692163973e-10
2.61238174745e-10
8.68284248946e-10
2.2928213442e-10
8.29945715741e-10
1.99229956947e-10
7.93457046655e-10
1.72157004098e-10
7.59653665931e-10
1.48277211367e-10
7.28920096117e-10
1.27425356862e-10
7.01366751517e-10
1.09289193704e-10
6.7694440708e-10
9.35190265899e-11
6.55516757974e-10
7.97771064481e-11
6.36905564003e-10
6.77575754521e-11
6.20918162523e-10
5.71922433325e-11
6.0736378262e-10
4.78498310605e-11
5.96062825375e-10
3.95324844648e-11
5.86851779282e-10
3.20714191381e-11
5.79585468413e-10
2.53225715133e-11
5.7413770557e-10
1.91626323828e-11
5.70401022541e-10
1.34855919308e-11
5.68285894278e-10
8.19980786523e-12
5.67719711447e-10
3.22555730636e-12
5.68645652522e-10
-1.50698440198e-12
5.71021535042e-10
-6.05938626533e-12
5.74818695154e-10
-1.04862890049e-11
5.8002091286e-10
-1.48364727744e-11
5.86623373555e-10
-1.91536703328e-11
5.94631650956e-10
-2.34771589782e-11
6.04060685935e-10
-2.784214554e-11
6.14933728038e-10
-3.22799501187e-11
6.27281199311e-10
-3.68179869129e-11
6.41139433907e-10
-4.14795342447e-11
6.56549240677e-10
-4.62832811955e-11
6.73554230708e-10
-5.12426355792e-11
6.92198847143e-10
-5.6364778396e-11
7.12526032607e-10
-6.16494546838e-11
7.34574470459e-10
-6.70875018234e-11
7.5837534319e-10
-7.26591359434e-11
7.83948565887e-10
-7.83320476806e-11
8.11298479395e-10
-8.40594019488e-11
8.40409028621e-10
-8.9777893242e-11
8.71238510968e-10
-9.54060755236e-11
9.03714057927e-10
-1.00843256359e-10
9.37726109e-10
-1.05969303239e-10
9.73123241103e-10
-1.10645732918e-10
1.00970781359e-09
-1.14718412526e-10
1.04723295079e-09
-1.18022067553e-10
1.08540138124e-09
-1.20386556604e-10
1.1238665565e-09
-1.21644563093e-10
1.16223627871e-09
-1.216400448e-10
1.20007880317e-09
-1.20236588592e-10
1.23693112278e-09
-1.17324849057e-10
1.27230897221e-09
-1.12828541233e-10
1.30571807374e-09
-1.06708902668e-10
1.336666254e-09
-9.896789964e-11
1.36467616734e-09
-8.96504971961e-11
1.38929834912e-09
-7.88460998812e-11
1.41012429385e-09
-6.66892232609e-11
1.4267994591e-09
-5.33597419249e-11
1.43903635173e-09
-3.90827145617e-11
1.44662730147e-09
-2.41257994458e-11
1.4494550162e-09
-8.79047759455e-12
1.44749810973e-09
6.60484931878e-12
1.44082973178e-09
2.17471413444e-11
1.42960942915e-09
3.63505394849e-11
1.41407014962e-09
5.01722751518e-11
1.39450337603e-09
6.3019265343e-11
1.3712453098e-09
7.47455338551e-11
1.34466565064e-09
8.52442263897e-11
1.31515890277e-09
9.44389097716e-11
1.28313740818e-09
1.02276962931e-10
1.24902526048e-09
1.08725936968e-10
1.21325227755e-09
1.13772958615e-10
1.17624731474e-09
1.17426648921e-10
1.13843059119e-09
1.19720201263e-10
1.10020527472e-09
1.20713806689e-10
1.06194902501e-09
1.20494935075e-10
1.02400636285e-09
1.19175819223e-10
9.86682628167e-10
1.16888362243e-10
9.50240018862e-10
1.13777292273e-10
9.1489587547e-10
1.09992640969e-10
8.80823080368e-10
1.05682569729e-10
8.48152226947e-10
1.0098731287e-10
8.16975103183e-10
9.60346681396e-11
7.87349013892e-10
9.09371428645e-11
7.59301512137e-10
8.57906214038e-11
7.32835191269e-10
8.0674276799e-11
7.07932282028e-10
7.56513963577e-11
6.84558885859e-10
7.0770801892e-11
6.62668748988e-10
6.60685930866e-11
6.4220653766e-10
6.15700046328e-11
6.23110615216e-10
5.72912296011e-11
6.05315347585e-10
5.32411149549e-11
5.88752979464e-10
4.94226771323e-11
5.73355130642e-10
4.58344161784e-11
5.59053964141e-10
4.247142758e-11
5.45783075968e-10
3.93263237723e-11
5.33478152728e-10
3.63899843605e-11
5.22077438247e-10
3.3652157161e-11
5.11522045195e-10
3.1101932657e-11
5.01756142263e-10
2.87281133765e-11
4.92727042564e-10
2.65194978156e-11
4.84385214217e-10
2.44650962801e-11
4.76684230154e-10
2.2554293773e-11
4.69580670448e-10
2.07769729447e-11
4.63033987531e-10
1.91236082968e-11
4.57006341889e-10
1.75853412791e-11
4.51462413697e-10
1.61540447055e-11
4.46369193941e-10
1.48223839394e-11
4.41695757201e-10
1.35838815925e-11
4.37413017188e-10
1.24329918606e-11
4.33493465805e-10
1.136519003e-11
4.29910896694e-10
1.03770817852e-11
4.26640115795e-10
9.46653538927e-12
4.23656644422e-10
8.63283674918e-12
4.20936426077e-10
7.876861555e-12
4.18455557356e-10
7.20124756431e-12
4.16190077948e-10
6.61052927796e-12
4.14115876005e-10
6.11115818725e-12
4.12208794125e-10
5.7112583989e-12
4.1044505222e-10
5.41982849755e-12
4.08802110929e-10
5.24483668525e-12
4.07259976102e-10
5.18916740616e-12
4.05802319681e-10
5.24258110902e-12
4.04414526704e-10
5.36727099769e-12
5.47740363987e-12
9.57630376538e-10
1.0911954642e-10
9.82838072728e-10
2.42342026448e-10
9.9564618369e-10
3.03392761452e-10
9.93300839261e-10
3.17637111629e-10
9.78941309604e-10
3.06529162545e-10
9.56663689657e-10
2.83515782778e-10
9.29914893722e-10
2.5603091842e-10
9.01224304463e-10
2.27920534301e-10
8.72327099853e-10
2.01054196861e-10
8.4435734558e-10
1.7624695387e-10
8.18020047756e-10
1.53762643007e-10
7.9372413718e-10
1.33585092709e-10
7.71679463502e-10
1.15563688817e-10
7.5196547829e-10
9.94910803477e-11
7.34578999237e-10
8.51440433464e-11
7.19466986973e-10
7.23042446143e-11
7.06548771533e-10
6.0768035711e-11
6.95730936532e-10
5.03503088942e-11
6.86917136523e-10
4.08852088114e-11
6.80014442643e-10
3.22252553201e-11
6.74937325433e-10
2.42397398031e-11
6.71610040983e-10
1.68128669034e-11
6.69967946455e-10
9.84189325042e-12
6.69958103827e-10
3.23539115675e-12
6.71539414644e-10
-3.08830360502e-12
6.746824382e-10
-9.20241778176e-12
6.79369013249e-10
-1.51728715588e-11
6.85591740699e-10
-2.10592072323e-11
6.93353358244e-10
-2.69152943557e-11
7.02666021892e-10
-3.27898285238e-11
7.13550491763e-10
-3.87266206869e-11
7.26035206357e-10
-4.4764669308e-11
7.40155218275e-10
-5.09380026934e-11
7.55950954981e-10
-5.72752740072e-11
7.7346675951e-10
-6.37990879139e-11
7.92749158794e-10
-7.05250360965e-11
8.13844800962e-10
-7.74604207677e-11
8.3679799937e-10
-8.46026521659e-11
8.61647820355e-10
-9.19373206712e-11
8.88424656926e-10
-9.94359690563e-11
9.17146243192e-10
-1.07053629083e-10
9.47813089053e-10
-1.14726241431e-10
9.80403354253e-10
-1.22368150469e-10
1.01486724096e-09
-1.29869952562e-10
1.05112106623e-09
-1.37097070191e-10
1.08904128121e-09
-1.43889504918e-10
1.12845882441e-09
-1.50063260898e-10
1.16915431568e-09
-1.5541388659e-10
1.21085468383e-09
-1.5972241649e-10
1.25323183479e-09
-1.62763686329e-10
1.29590386782e-09
-1.64316572902e-10
1.33843911961e-09
-1.641752715e-10
1.38036299043e-09
-1.62160432713e-10
1.42116717383e-09
-1.58129004486e-10
1.460320697e-09
-1.51982035729e-10
1.49728218211e-09
-1.43670359117e-10
1.53151292962e-09
-1.33198619406e-10
1.5624906024e-09
-1.20628144166e-10
1.58972322583e-09
-1.0607870054e-10
1.61276307404e-09
-8.97290528082e-11
1.63122037377e-09
-7.18170281098e-11
1.64477750369e-09
-5.26398368375e-11
1.65320381028e-09
-3.25521048065e-11
1.65636861432e-09
-1.19552870266e-11
1.65424830283e-09
8.72514896043e-12
1.64692484057e-09
2.90705857211e-11
1.63457592099e-09
4.8699435749e-11
1.61745927966e-09
6.72888884124e-11
1.59589510704e-09
8.45834059794e-11
1.57025045232e-09
1.00390153559e-10
1.54092740215e-09
1.14567239437e-10
1.50835441878e-09
1.27011854775e-10
1.47297953888e-09
1.37651803989e-10
1.43526443214e-09
1.46441005049e-10
1.3956783761e-09
1.53358976726e-10
1.35469122072e-09
1.58413767545e-10
1.31276490879e-09
1.61646477922e-10
1.27034390347e-09
1.63134778505e-10
1.22784546161e-09
1.62993345342e-10
1.18565085937e-09
1.61370391898e-10
1.14409849462e-09
1.58440699502e-10
1.10347942588e-09
1.54396335587e-10
1.06403550002e-09
1.49436543443e-10
1.0259598706e-09
1.43758177749e-10
9.89399472483e-10
1.37547691454e-10
9.54458909693e-10
1.30975213181e-10
9.21205211995e-10
1.24190824462e-10
8.89672985962e-10
1.17322832872e-10
8.59869588739e-10
1.1047766085e-10
8.31780061265e-10
1.03740911938e-10
8.05371653641e-10
9.71791987713e-11
7.80597852872e-10
9.08423841569e-11
7.57401879994e-10
8.47659687457e-11
7.35719663049e-10
7.89734386332e-11
7.15482316935e-10
7.34784539163e-11
6.96618175457e-10
6.82868121538e-11
6.79054427043e-10
6.3398158762e-11
6.6271840706e-10
5.88074423099e-11
6.47538597447e-10
5.45061286523e-11
6.33445380624e-10
5.0483196933e-11
6.20371589549e-10
4.67259444231e-11
6.08252890708e-10
4.32206280912e-11
5.97028031469e-10
3.99529695769e-11
5.86638978451e-10
3.6908548138e-11
5.77030968943e-10
3.40731034012e-11
5.68152493529e-10
3.14327670865e-11
5.59955224417e-10
2.89742402135e-11
5.52393901053e-10
2.66849300531e-11
5.45426181896e-10
2.45530590384e-11
5.39012469148e-10
2.2567756249e-11
5.33115711386e-10
2.07191406657e-11
5.27701187794e-10
1.89984043011e-11
5.22736276692e-10
1.73979022126e-11
5.18190210771e-10
1.59112553214e-11
5.14033821659e-10
1.45334703704e-11
5.10239277646e-10
1.32610789673e-11
5.06779820612e-10
1.20922934276e-11
5.03629512057e-10
1.10271698263e-11
5.00763003778e-10
1.00677556236e-11
4.98155356579e-10
9.21817632515e-12
4.9578193962e-10
8.48457506687e-12
4.93618450515e-10
7.87474752072e-12
4.91641090194e-10
7.39718896021e-12
4.89826871281e-10
7.05905590417e-12
4.88153829094e-10
6.86221006705e-12
4.86600265688e-10
6.79614504307e-12
4.8514070029e-10
6.82683684471e-12
6.88336379349e-12
9.53034962367e-10
9.35845778751e-11
9.76851249727e-10
2.18525726718e-10
9.94561981992e-10
2.85682017145e-10
1.00143627628e-09
3.1076280541e-10
9.9809129331e-10
3.0987413341e-10
9.86927793473e-10
2.94679270411e-10
9.70480752823e-10
2.72477946853e-10
9.50876779819e-10
2.47524495119e-10
9.29742278889e-10
2.22188685661e-10
9.08260442298e-10
1.977287784e-10
8.87262078911e-10
1.74760994416e-10
8.67311666156e-10
1.53535493581e-10
8.48778254225e-10
1.34097088971e-10
8.31890582016e-10
1.163787409e-10
8.16778673572e-10
1.00255940271e-10
8.03504690251e-10
8.55782165683e-11
7.92085543774e-10
7.21871709919e-11
7.82509314584e-10
5.99265270801e-11
7.74747069228e-10
4.86474433742e-11
7.68761288972e-10
3.82110250138e-11
7.64511817898e-10
2.84892005688e-11
7.61960004067e-10
1.93646707017e-11
7.61071529237e-10
1.07303583482e-11
7.61818288564e-10
2.48862242242e-12
7.64179582062e-10
-5.44960615975e-12
7.68142795418e-10
-1.31656398139e-11
7.73703725853e-10
-2.07338102579e-11
7.80866624852e-10
-2.82221140518e-11
7.89644017335e-10
-3.56926941765e-11
8.00056331897e-10
-4.32021499004e-11
8.12131356555e-10
-5.08016515888e-11
8.25903518407e-10
-5.85368367831e-11
8.41412972148e-10
-6.64474613767e-11
8.58704470739e-10
-7.45667767962e-11
8.77825981136e-10
-8.29206016888e-11
8.98826998766e-10
-9.15260562071e-11
9.21756506524e-10
-1.00389930018e-10
9.46660518039e-10
-1.09506664092e-10
9.7357914194e-10
-1.18855943801e-10
1.00254310562e-09
-1.28399930683e-10
1.03356968619e-09
-1.38080206197e-10
1.06665801669e-09
-1.47814566984e-10
1.10178377232e-09
-1.57493899559e-10
1.13889329966e-09
-1.66979471649e-10
1.17789733743e-09
-1.76101097924e-10
1.21866459325e-09
-1.84656748811e-10
1.2610155811e-09