/*--------------------------------*- C++ -*----------------------------------*\
  =========                 |
  \\      /  F ield         | OpenFOAM: The Open Source CFD Toolbox
   \\    /   O peration     | Website:  https://openfoam.org
    \\  /    A nd           | Version:  7
     \\/     M anipulation  |
\*---------------------------------------------------------------------------*/
FoamFile
{
    version     2.0;
    format      ascii;
    class       volVectorField;
    location    "720";
    object      U;
}
// * * * * * * * * * * * * * * * * * * * * * * * * * * * * * * * * * * * * * //

dimensions      [0 1 -1 0 0 0 0];

internalField   nonuniform List<vector> 
8192
(
(0.00104344871271 0.000156551287291 0)
(0.000759284952915 0.000127612469353 0)
(0.000549274605135 8.23978721612e-05 0)
(0.000414036314597 5.28404122018e-05 0)
(0.000326265260408 3.49306357564e-05 0)
(0.000267306560627 2.40280576115e-05 0)
(0.000226090539732 1.71879567788e-05 0)
(0.000196175987642 1.27265888033e-05 0)
(0.000173752259877 9.69713251011e-06 0)
(0.000156494925482 7.56019553297e-06 0)
(0.000142934348042 6.00037568562e-06 0)
(0.000132106730938 4.82723535038e-06 0)
(0.000123357702607 3.9217870865e-06 0)
(0.000116228797753 3.20711206574e-06 0)
(0.000110389835057 2.63184513831e-06 0)
(0.000105597350552 2.16063410489e-06 0)
(0.000101668245922 1.7684655162e-06 0)
(9.84625856127e-05 1.43719006068e-06 0)
(9.58720574414e-05 1.15333367991e-06 0)
(9.38120386231e-05 9.0668103753e-07 0)
(9.2216018418e-05 6.8933542546e-07 0)
(9.1031599512e-05 4.95080128923e-07 0)
(9.02175813335e-05 3.18935121054e-07 0)
(8.97418005198e-05 1.56843222701e-07 0)
(8.9579511399e-05 5.44392337793e-09 0)
(8.97121582037e-05 -1.38092167649e-07 0)
(9.01264347355e-05 -2.76185228011e-07 0)
(9.08135575876e-05 -4.10937867479e-07 0)
(9.17687004652e-05 -5.4420458739e-07 0)
(9.29905491657e-05 -6.77642974348e-07 0)
(9.44809445785e-05 -8.12750532892e-07 0)
(9.62445872083e-05 -9.50889369006e-07 0)
(9.82887800716e-05 -1.09329988775e-06 0)
(0.000100623188269 -1.24110376388e-06 0)
(0.000103259593456 -1.39529587781e-06 0)
(0.000106211620261 -1.55672431726e-06 0)
(0.00010949440961 -1.72605729462e-06 0)
(0.000113124211439 -1.9037356066e-06 0)
(0.000117117866805 -2.08990957873e-06 0)
(0.000121492147888 -2.28436001466e-06 0)
(0.000126262924914 -2.4864041595e-06 0)
(0.000131444133108 -2.69478977665e-06 0)
(0.000137046522353 -2.90758376919e-06 0)
(0.000143076188989 -3.12206570138e-06 0)
(0.000149532914597 -3.33464126671e-06 0)
(0.000156408370608 -3.54079462981e-06 0)
(0.000163684287641 -3.73510083831e-06 0)
(0.000171330729036 -3.91131757364e-06 0)
(0.000179304639472 -4.06256852593e-06 0)
(0.000187548850974 -4.18161736954e-06 0)
(0.0001959917095 -4.2612144057e-06 0)
(0.000204547432764 -4.29448113359e-06 0)
(0.000213117231159 -4.27528880225e-06 0)
(0.000221591138703 -4.198589859e-06 0)
(0.000229850435391 -4.0606779332e-06 0)
(0.000237770516484 -3.85937475081e-06 0)
(0.000245224079527 -3.59416096674e-06 0)
(0.000252084539344 -3.26627326875e-06 0)
(0.000258229623598 -2.87878784697e-06 0)
(0.000263545139878 -2.4367084164e-06 0)
(0.000267928932603 -1.94706803005e-06 0)
(0.000271295016672 -1.41900399917e-06 0)
(0.000273577703732 -8.6367561375e-07 0)
(0.000274735231114 -2.93849107949e-07 0)
(0.000274752150632 2.76927407842e-07 0)
(0.000273639789863 8.35426388236e-07 0)
(0.000271434530665 1.36982116133e-06 0)
(0.000268194230251 1.87046309228e-06 0)
(0.000263993581053 2.33016565258e-06 0)
(0.000258919387947 2.74400300836e-06 0)
(0.000253066545923 3.10881097919e-06 0)
(0.00024653506979 3.42263401898e-06 0)
(0.000239428105574 3.68429653647e-06 0)
(0.000231850596726 3.89317673557e-06 0)
(0.000223908196925 4.04918619485e-06 0)
(0.000215706064418 4.15290874348e-06 0)
(0.00020734730458 4.20581338131e-06 0)
(0.000198931013891 4.21043993423e-06 0)
(0.00019055006424 4.1704730978e-06 0)
(0.000182288891106 4.09066450257e-06 0)
(0.000174221581498 3.97661091904e-06 0)
(0.000166410504804 3.83443312309e-06 0)
(0.000158905625187 3.67041550466e-06 0)
(0.000151744516305 3.49066412464e-06 0)
(0.000144952999016 3.30082568222e-06 0)
(0.000138546257391 3.10589022549e-06 0)
(0.000132530261697 2.9100814892e-06 0)
(0.000126903332707 2.71682520603e-06 0)
(0.000121657708954 2.52877787237e-06 0)
(0.000116781015503 2.34789644648e-06 0)
(0.000112257570549 2.17553083618e-06 0)
(0.00010806949861 2.01252480436e-06 0)
(0.000104197643877 1.8593149178e-06 0)
(0.000100622293967 1.71602118243e-06 0)
(9.7323734148e-05 1.58252594556e-06 0)
(9.42826565283e-05 1.4585400225e-06 0)
(9.14804495089e-05 1.34365631111e-06 0)
(8.88993912883e-05 1.23739211861e-06 0)
(8.65227685265e-05 1.13922168308e-06 0)
(8.43349380659e-05 1.04860058615e-06 0)
(8.23213464399e-05 9.64983561527e-07 0)
(8.04685189132e-05 8.87837146236e-07 0)
(7.87640272401e-05 8.16648318825e-07 0)
(7.71964431099e-05 7.50930167456e-07 0)
(7.57552824639e-05 6.90225356242e-07 0)
(7.44309443721e-05 6.34108093892e-07 0)
(7.32146469793e-05 5.82185100644e-07 0)
(7.20983620279e-05 5.34096059687e-07 0)
(7.1074748651e-05 4.89513900581e-07 0)
(7.01370863682e-05 4.48145308339e-07 0)
(6.9279206516e-05 4.0973178379e-07 0)
(6.84954205648e-05 3.74051693588e-07 0)
(6.77804428855e-05 3.40923772851e-07 0)
(6.71293043686e-05 3.10212768327e-07 0)
(6.65372517328e-05 2.8183810721e-07 0)
(6.59996251036e-05 2.55786956588e-07 0)
(6.55117031008e-05 2.3213365737e-07 0)
(6.5068499519e-05 2.11068695123e-07 0)
(6.46644875351e-05 1.92942204419e-07 0)
(6.42932140734e-05 1.78330305711e-07 0)
(6.39467448186e-05 1.6813812223e-07 0)
(6.36148431818e-05 1.63762809187e-07 0)
(6.32837255357e-05 1.67354257485e-07 0)
(6.29341454916e-05 1.82225347413e-07 0)
(6.2538480602e-05 2.13439268215e-07 0)
(6.2056757068e-05 2.68284187009e-07 0)
(6.14337278202e-05 3.54745201786e-07 0)
(6.06237780949e-05 4.55204815788e-07 0)
(0.00121015914155 0.000302943430032 0)
(0.0011602948052 0.000315248410391 0)
(0.00102697683636 0.000238090229056 0)
(0.000887696143278 0.000171667020295 0)
(0.000767272781037 0.000124298425162 0)
(0.000669174442482 9.17172872009e-05 0)
(0.00059068966065 6.91995104257e-05 0)
(0.000527986280256 5.3332948219e-05 0)
(0.000477622612568 4.18781493423e-05 0)
(0.00043686008778 3.33990190022e-05 0)
(0.000403610816706 2.69713822496e-05 0)
(0.000376303312896 2.19913316856e-05 0)
(0.000353754002598 1.80560118874e-05 0)
(0.000335065266355 1.48905114466e-05 0)
(0.000319549799554 1.23028589733e-05 0)
(0.000306675923935 1.01559648096e-05 0)
(0.00029602832459 8.34982396444e-06 0)
(0.000287279794898 6.81000762668e-06 0)
(0.000280170755102 5.48007100548e-06 0)
(0.000274494261083 4.31644446671e-06 0)
(0.000270084913224 3.28492905863e-06 0)
(0.000266810560632 2.35824816467e-06 0)
(0.000264566030092 1.51430724487e-06 0)
(0.000263268337897 7.34936920609e-07 0)
(0.000262852999558 4.9719800675e-09 0)
(0.000263271160101 -6.88431681126e-07 0)
(0.000264487341424 -1.35630596235e-06 0)
(0.000266477656861 -2.00825597035e-06 0)
(0.000269228380375 -2.652751446e-06 0)
(0.000272734780511 -3.29734139893e-06 0)
(0.000277000145541 -3.94880672875e-06 0)
(0.000282034937555 -4.6132595669e-06 0)
(0.000287856019632 -5.29619378944e-06 0)
(0.000294485903108 -6.00248793403e-06 0)
(0.000301951962038 -6.73635929045e-06 0)
(0.000310285560079 -7.5012661052e-06 0)
(0.000319521031932 -8.29975377668e-06 0)
(0.000329694458212 -9.13324084131e-06 0)
(0.000340842170459 -1.00017419395e-05 0)
(0.00035299892385 -1.09035283324e-05 0)
(0.000366195681336 -1.18347326442e-05 0)
(0.000380456967453 -1.27889138652e-05 0)
(0.00039579777598 -1.3756611599e-05 0)
(0.000412220055951 -1.47249344531e-05 0)
(0.000429708856612 -1.56772445699e-05 0)
(0.000448228282402 -1.65930147403e-05 0)
(0.00046771748788 -1.74479407552e-05 0)
(0.000488087017958 -1.82143826708e-05 0)
(0.000509215853177 -1.88621788605e-05 0)
(0.000530949533176 -1.93598248466e-05 0)
(0.000553099687027 -1.96759425891e-05 0)
(0.000575445192588 -1.97809026347e-05 0)
(0.00059773503336 -1.96484257276e-05 0)
(0.00061969275642 -1.92570022609e-05 0)
(0.000641022304447 -1.8591029778e-05 0)
(0.000661414934182 -1.76416556667e-05 0)
(0.000680556946549 -1.64073816135e-05 0)
(0.000698138009733 -1.4894507929e-05 0)
(0.000713859915364 -1.31174834821e-05 0)
(0.000727445652755 -1.10992167761e-05 0)
(0.00073864870718 -8.87136860385e-06 0)
(0.00074726241573 -6.47447045577e-06 0)
(0.000753128921158 -3.95738942859e-06 0)
(0.00075614676052 -1.37550351309e-06 0)
(0.000756275732108 1.21267555435e-06 0)
(0.000753537830092 3.74991246121e-06 0)
(0.000748013821615 6.18456121254e-06 0)
(0.000739836086738 8.47370437613e-06 0)
(0.000729179190705 1.05844040162e-05 0)
(0.000716249988992 1.24930832862e-05 0)
(0.000701278741229 1.41837350274e-05 0)
(0.000684511962639 1.56458714961e-05 0)
(0.000666206991309 1.68728953773e-05 0)
(0.000646627772716 1.78612018356e-05 0)
(0.000626041185315 1.86100422548e-05 0)
(0.00060471327813 1.91219854067e-05 0)
(0.000582905009676 1.94036585677e-05 0)
(0.000560867406678 1.94663837643e-05 0)
(0.000538836396359 1.93263873676e-05 0)
(0.000517027796077 1.90044253836e-05 0)
(0.00049563300978 1.85248518893e-05 0)
(0.000474815891958 1.7914297243e-05 0)
(0.000454711051932 1.72001864901e-05 0)
(0.000435423652251 1.64093221794e-05 0)
(0.000417030561407 1.55667012744e-05 0)
(0.000399582587198 1.4694660951e-05 0)
(0.000383107453429 1.38123755552e-05 0)
(0.000367613181266 1.29356722838e-05 0)
(0.000353091579295 1.20771009665e-05 0)
(0.000339521612445 1.12461823204e-05 0)
(0.000326872492152 1.0449762857e-05 0)
(0.000315106396042 9.69241720788e-06 0)
(0.000304180779118 8.97685403211e-06 0)
(0.00029405027749 8.30429671208e-06 0)
(0.000284668231477 7.67482237274e-06 0)
(0.000275987869439 7.08765217848e-06 0)
(0.000267963200026 6.54139211514e-06 0)
(0.000260549661045 6.03422745222e-06 0)
(0.000253704570262 5.56407606505e-06 0)
(0.00024738741848 5.12870668664e-06 0)
(0.000241560039624 4.72582810058e-06 0)
(0.000236186686767 4.35315492156e-06 0)
(0.000231234037663 4.00845489352e-06 0)
(0.000226671148489 3.68958198476e-06 0)
(0.000222469370346 3.39449881554e-06 0)
(0.000218602239446 3.12129140396e-06 0)
(0.000215045348934 2.86817866034e-06 0)
(0.000211776207719 2.6335187217e-06 0)
(0.000208774089492 2.41581389685e-06 0)
(0.000206019873173 2.213715884e-06 0)
(0.00020349587419 2.02603284813e-06 0)
(0.000201185664245 1.85174009213e-06 0)
(0.000199073875276 1.68999628118e-06 0)
(0.000197145981257 1.54016768389e-06 0)
(0.000195388048951 1.40186359122e-06 0)
(0.000193786445811 1.27498721488e-06 0)
(0.000192327489685 1.15980796982e-06 0)
(0.000190997021042 1.05706347482e-06 0)
(0.000189779874685 9.68103024888e-07 0)
(0.000188659226195 8.95089063277e-07 0)
(0.00018761579397 8.41278831556e-07 0)
(0.000186626904016 8.11412044464e-07 0)
(0.000185665506201 8.12219238832e-07 0)
(0.000184699454326 8.52991494626e-07 0)
(0.000183691956789 9.45835273966e-07 0)
(0.000182605596627 1.10397213195e-06 0)
(0.000181416788709 1.33089507717e-06 0)
(0.000180145541535 1.5602525972e-06 0)
(0.00122477836197 0.000268005920401 0)
(0.00124109526147 0.000383733338013 0)
(0.00119626298057 0.000347755525785 0)
(0.00111364019462 0.000283905177313 0)
(0.00102085120445 0.000225272594937 0)
(0.000931593113335 0.000178099521085 0)
(0.000851289493587 0.000141605652009 0)
(0.000781327192584 0.000113592462053 0)
(0.00072133123789 9.19782322045e-05 0)
(0.000670271153581 7.51215199617e-05 0)
(0.000626965206647 6.18040745208e-05 0)
(0.000590291742329 5.11395833416e-05 0)
(0.000559264040549 4.2484748753e-05 0)
(0.000533044774118 3.53697544126e-05 0)
(0.000510935983798 2.94478510736e-05 0)
(0.000492360953794 2.44598571452e-05 0)
(0.000476845076676 2.02093878562e-05 0)
(0.00046399847703 1.65455538794e-05 0)
(0.000453501223399 1.33508001242e-05 0)
(0.000445091137966 1.05322779859e-05 0)
(0.000438553907968 8.01565793184e-06 0)
(0.000433715124897 5.74064095412e-06 0)
(0.000430433892963 3.65766451342e-06 0)
(0.000428597696131 1.72545797424e-06 0)
(0.000428118266529 -9.07899916546e-08 0)
(0.000428928245204 -1.82081579885e-06 0)
(0.000430978465772 -3.49032847166e-06 0)
(0.000434235727157 -5.12181272462e-06 0)
(0.000438680945677 -6.73513670785e-06 0)
(0.000444307591421 -8.3479993604e-06 0)
(0.000451120327508 -9.97624440875e-06 0)
(0.000459133779051 -1.16340569528e-05 0)
(0.000468371362887 -1.33340506091e-05 0)
(0.00047886411043 -1.50872469977e-05 0)
(0.000490649414825 -1.69029447743e-05 0)
(0.000503769630897 -1.8788472096e-05 0)
(0.000518270452929 -2.07488149532e-05 0)
(0.000534198992463 -2.27861144678e-05 0)
(0.000551601477724 -2.48990303135e-05 0)
(0.000570520500201 -2.70819756316e-05 0)
(0.000590991745306 -2.93242428894e-05 0)
(0.000613040166283 -3.16090606733e-05 0)
(0.000636675597264 -3.39126491556e-05 0)
(0.000661887855725 -3.62033750108e-05 0)
(0.00068864145784 -3.84411412731e-05 0)
(0.000716870160313 -4.05771756019e-05 0)
(0.000746471641377 -4.25543906421e-05 0)
(0.00077730272748 -4.43084682268e-05 0)
(0.000809175638806 -4.57697544259e-05 0)
(0.000841855741608 -4.686594236e-05 0)
(0.000875061236801 -4.75253806732e-05 0)
(0.000908465076074 -4.76807130112e-05 0)
(0.000941699196564 -4.72724784111e-05 0)
(0.000974360947847 -4.62523253082e-05 0)
(0.00100602140975 -4.45856194211e-05 0)
(0.00103623521455 -4.22534067702e-05 0)
(0.00106455149792 -3.92538382857e-05 0)
(0.00109052566644 -3.56032032781e-05 0)
(0.00111373172511 -3.13366834804e-05 0)
(0.00113377494258 -2.65089156198e-05 0)
(0.00115030466231 -2.11944026519e-05 0)
(0.00116302702736 -1.54874848371e-05 0)
(0.00117171706614 -9.5009109543e-06 0)
(0.0011762289289 -3.36169291819e-06 0)
(0.0011765025028 2.79629369188e-06 0)
(0.00117256480232 8.84185451249e-06 0)
(0.00116452556826 1.46558035465e-05 0)
(0.00115256788627 2.01378057407e-05 0)
(0.00113693574067 2.52092572428e-05 0)
(0.00111792083775 2.98122352348e-05 0)
(0.00109585059625 3.39059622365e-05 0)
(0.0010710782166 3.74626838156e-05 0)
(0.00104397479216 4.0464353697e-05 0)
(0.00101492286772 4.29007571695e-05 0)
(0.000984310656909 4.47691536346e-05 0)
(0.000952526180072 4.60751263373e-05 0)
(0.000919950838521 4.68339974172e-05 0)
(0.000886952345636 4.70720134809e-05 0)
(0.000853877356166 4.68266341812e-05 0)
(0.000821044419563 4.61455971295e-05 0)
(0.000788737957094 4.50848161535e-05 0)
(0.000757203842753 4.37054583704e-05 0)
(0.000726646927604 4.2070679983e-05 0)
(0.000697230570357 4.02424913574e-05 0)
(0.000669077993027 3.82791122692e-05 0)
(0.000642275110948 3.62330243643e-05 0)
(0.000616874403928 3.41497769674e-05 0)
(0.0005928993903 3.20674863571e-05 0)
(0.000570349315792 3.00168984399e-05 0)
(0.00054920374955 2.80218580663e-05 0)
(0.000529426868865 2.61000329645e-05 0)
(0.00051097129738 2.42637639981e-05 0)
(0.00049378143069 2.25209442827e-05 0)
(0.000477796235381 2.08758606524e-05 0)
(0.000462951543458 1.93299571743e-05 0)
(0.000449181886061 1.78825009044e-05 0)
(0.000436421921708 1.65311442953e-05 0)
(0.000424607517852 1.52723880688e-05 0)
(0.000413676543091 1.41019535638e-05 0)
(0.000403569422835 1.30150762137e-05 0)
(0.000394229505129 1.20067323617e-05 0)
(0.00038560327667 1.10718112701e-05 0)
(0.000377640462509 1.02052430187e-05 0)
(0.000370294036752 9.40209176383e-06 0)
(0.000363520166136 8.657622398e-06 0)
(0.000357278103475 7.9673474856e-06 0)
(0.000351530043848 7.32706019933e-06 0)
(0.0003462409528 6.73285819331e-06 0)
(0.000341378372729 6.18116262786e-06 0)
(0.000336912210949 5.66873621505e-06 0)
(0.000332814510485 5.19270389046e-06 0)
(0.000329059202457 4.75057982647e-06 0)
(0.000325621836852 4.34030472081e-06 0)
(0.000322479286534 3.96029790139e-06 0)
(0.000319609417646 3.60952953843e-06 0)
(0.00031699071823 3.28761938363e-06 0)
(0.000314601876618 2.9949696315e-06 0)
(0.000312421302993 2.73294065907e-06 0)
(0.000310426593721 2.50407849624e-06 0)
(0.000308593953258 2.31239999791e-06 0)
(0.000306897621111 2.16373014978e-06 0)
(0.000305309418211 2.06605191304e-06 0)
(0.000303798658872 2.02973537186e-06 0)
(0.000302332926318 2.06725923854e-06 0)
(0.000300880658096 2.1913334276e-06 0)
(0.000299417207821 2.40828518812e-06 0)
(0.000297935742359 2.69685650236e-06 0)
(0.000296455437043 2.94584464326e-06 0)
(0.00122193792083 0.00022128963135 0)
(0.00125345256566 0.000382618063114 0)
(0.00125124951709 0.000395906103699 0)
(0.00121377029312 0.000355856583159 0)
(0.00115603823283 0.000303842213116 0)
(0.00109045280252 0.000254373397507 0)
(0.00102448142932 0.000211606741597 0)
(0.00096207845482 0.000175956621117 0)
(0.00090506349901 0.00014662495702 0)
(0.000854052396879 0.000122545955283 0)
(0.000809022138334 0.000102715818773 0)
(0.000769636978847 8.62864374532e-05 0)
(0.000735430142897 7.25724074536e-05 0)
(0.000705901466162 6.10300145431e-05 0)
(0.00068056729566 5.12305280774e-05 0)
(0.000658983851055 4.28356317789e-05 0)
(0.000640756194666 3.55771245499e-05 0)
(0.000625539670219 2.92409199669e-05 0)
(0.000613037629929 2.36547075962e-05 0)
(0.000602997539338 1.86785272152e-05 0)
(0.000595206573414 1.41975864317e-05 0)
(0.000589487271971 1.01167800036e-05 0)
(0.000585693521267 6.35649246584e-06 0)
(0.000583706965129 2.84936879123e-06 0)
(0.000583433862496 -4.62181225819e-07 0)
(0.000584802362727 -3.6279144556e-06 0)
(0.0005877601495 -6.69124634819e-06 0)
(0.000592272400363 -9.69041436193e-06 0)
(0.000598320002486 -1.26593609135e-05 0)
(0.000605897961083 -1.56283824764e-05 0)
(0.000615013939863 -1.86245767661e-05 0)
(0.000625686871845 -2.16721061826e-05 0)
(0.000637945576841 -2.47922855523e-05 0)
(0.000651827318832 -2.80034940216e-05 0)
(0.000667376232391 -3.13209050357e-05 0)
(0.000684641542634 -3.47560241775e-05 0)
(0.000703675498775 -3.83160235654e-05 0)
(0.000724530938329 -4.20028637522e-05 0)
(0.000747258399083 -4.58122019388e-05 0)
(0.000771902701513 -4.97320997014e-05 0)
(0.000798498938345 -5.37415672585e-05 0)
(0.000827067834052 -5.78090150429e-05 0)
(0.000857610479199 -6.18907283828e-05 0)
(0.000890102506046 -6.59295338644e-05 0)
(0.000924487854583 -6.98538810732e-05 0)
(0.000960672380246 -7.35776071246e-05 0)
(0.000998517668345 -7.70006666662e-05 0)
(0.00103783552977 -8.00110733731e-05 0)
(0.00107838373343 -8.24881933226e-05 0)
(0.00111986355303 -8.43073505932e-05 0)
(0.00116191964131 -8.53454767578e-05 0)
(0.00120414258254 -8.5487314996e-05 0)
(0.00124607423074 -8.46315603266e-05 0)
(0.00128721567203 -8.26963500481e-05 0)
(0.00132703742965 -7.96237287248e-05 0)
(0.00136499142715 -7.53830166268e-05 0)
(0.00140052424913 -6.99732551686e-05 0)
(0.00143309132387 -6.34249579013e-05 0)
(0.00146217170776 -5.58013089034e-05 0)
(0.00148728316751 -4.71989163024e-05 0)
(0.00150799732239 -3.77482387392e-05 0)
(0.00152395468023 -2.76133484614e-05 0)
(0.00153487910298 -1.69895012201e-05 0)
(0.00154059033257 -6.09620321727e-06 0)
(0.00154101230248 4.83523622902e-06 0)
(0.00153617508793 1.55777877827e-05 0)
(0.00152620970941 2.59244291161e-05 0)
(0.00151133680557 3.56996986235e-05 0)
(0.00149185160256 4.47646331341e-05 0)
(0.00146810811812 5.30151558806e-05 0)
(0.00144050491665 6.03763845026e-05 0)
(0.00140947339613 6.67960543656e-05 0)
(0.00137546841146 7.22392796786e-05 0)
(0.00133896046877 7.66855825025e-05 0)
(0.00130042858357 8.01283071691e-05 0)
(0.00126035296298 8.2575953447e-05 0)
(0.00121920695801 8.40544018883e-05 0)
(0.00117744822169 8.46087263475e-05 0)
(0.00113550952425 8.43035003905e-05 0)
(0.00109379001131 8.32210773949e-05 0)
(0.00105264775571 8.1457956163e-05 0)
(0.00101239428683 7.91198093787e-05 0)
(0.000973291480326 7.63159641707e-05 0)
(0.000935550859549 7.31541045012e-05 0)
(0.000899335076065 6.97357849279e-05 0)
(0.000864761145295 6.61530950603e-05 0)
(0.00083190492528 6.24865691031e-05 0)
(0.000800806327219 5.88042467304e-05 0)
(0.000771474808288 5.51616770604e-05 0)
(0.000743894790979 5.16026129803e-05 0)
(0.000718030754988 4.81601488323e-05 0)
(0.000693831841474 4.48580910562e-05 0)
(0.000671235887158 4.17123996944e-05 0)
(0.000650172864539 3.87325878959e-05 0)
(0.000630567745465 3.59230086667e-05 0)
(0.000612342831157 3.32839916317e-05 0)
(0.000595419605909 3.08128162464e-05 0)
(0.000579720177287 2.85045240386e-05 0)
(0.000565168365487 2.63525817819e-05 0)
(0.000551690500703 2.43494126801e-05 0)
(0.000539215981563 2.24868142511e-05 0)
(0.000527677640991 2.07562816436e-05 0)
(0.000517011958975 1.91492536453e-05 0)
(0.000507159155166 1.76572969932e-05 0)
(0.000498063188166 1.62722424278e-05 0)
(0.000489671682989 1.49862841793e-05 0)
(0.000481935803449 1.37920527003e-05 0)
(0.000474810082085 1.26826691774e-05 0)
(0.000468252216753 1.16517890752e-05 0)
(0.000462222839907 1.06936412921e-05 0)
(0.000456685264021 9.80306885254e-06 0)
(0.000451605204362 8.97557695851e-06 0)
(0.0004469504785 8.20739411151e-06 0)
(0.00044269068063 7.49555233816e-06 0)
(0.000438796828085 6.83799269866e-06 0)
(0.00043524097791 6.23370245346e-06 0)
(0.0004319958136 5.68288954697e-06 0)
(0.00042903420756 5.1871978576e-06 0)
(0.000426328775531 4.74996040235e-06 0)
(0.000423851458865 4.37647336522e-06 0)
(0.0004215732047 4.07424158212e-06 0)
(0.000419463871231 3.85307571602e-06 0)
(0.000417492575677 3.72476577609e-06 0)
(0.00041562883095 3.70170597728e-06 0)
(0.000413844948362 3.79303797724e-06 0)
(0.000412120031557 3.99494870603e-06 0)
(0.000410444118924 4.26757226907e-06 0)
(0.00040881276827 4.48678585915e-06 0)
(0.00121695589576 0.000182395808068 0)
(0.00124920062022 0.000357752496238 0)
(0.00126596381083 0.000406211500531 0)
(0.00125642944117 0.000392564752349 0)
(0.00122636953734 0.000354925980185 0)
(0.00118408903197 0.000311155537849 0)
(0.00113613176875 0.000268753209264 0)
(0.0010868671774 0.000230477690925 0)
(0.00103897776793 0.000197008224271 0)
(0.000993990856055 0.000168160674066 0)
(0.000952687207711 0.000143434979208 0)
(0.000915383582485 0.000122256034418 0)
(0.000882119141502 0.000104074060519 0)
(0.000852775145635 8.84010076381e-05 0)
(0.000827150286065 7.48185391282e-05 0)
(0.000805007184977 6.29741410712e-05 0)
(0.000786100444891 5.25729870206e-05 0)
(0.000770193029117 4.3368973711e-05 0)
(0.000757065346981 3.5156353046e-05 0)
(0.000746519838525 2.7762458427e-05 0)
(0.000738382831349 2.1041606858e-05 0)
(0.000732504785991 1.48700859209e-05 0)
(0.000728759626764 9.14207710998e-06 0)
(0.000727043587664 3.76636119097e-06 0)
(0.00072727383294 -1.33633319474e-06 0)
(0.000729387000041 -6.23544538004e-06 0)
(0.000733337747326 -1.0992263574e-05 0)
(0.000739097349129 -1.56612623158e-05 0)
(0.000746652343305 -2.02911200773e-05 0)
(0.000756003215687 -2.49254632866e-05 0)
(0.00076716309561 -2.96033616989e-05 0)
(0.000780156424943 -3.43595875037e-05 0)
(0.000795017553503 -3.92246404692e-05 0)
(0.000811789205259 -4.42245331106e-05 0)
(0.000830520751734 -4.93803236391e-05 0)
(0.000851266221686 -5.47073806402e-05 0)
(0.000874081969824 -6.02143632677e-05 0)
(0.00089902392304 -6.59019055168e-05 0)
(0.000926144321962 -7.1761005153e-05 0)
(0.000955487880736 -7.77711393913e-05 0)
(0.000987087301809 -8.38981633694e-05 0)
(0.00102095810898 -9.00920957055e-05 0)
(0.00105709280513 -9.6284958732e-05 0)
(0.00109545442534 -0.00010238891594 0)
(0.00113596964409 -0.000108295027173 0)
(0.00117852170683 -0.000113873005706 0)
(0.00122294358407 -0.000118972385008 0)
(0.00126901187501 -0.00012342545426 0)
(0.00131644208921 -0.000127052172465 0)
(0.0013648859725 -0.000129667011937 0)
(0.00141393148015 -0.000131087344647 0)
(0.00146310581454 -0.000131142652158 0)
(0.00151188165241 -0.00012968363554 0)
(0.00155968635261 -0.000126590340538 0)
(0.00160591366079 -0.000121778727538 0)
(0.00164993730941 -0.00011520558848 0)
(0.00169112596975 -0.000106872093299 0)
(0.00172885914965 -9.68263074889e-05 0)
(0.00176254369053 -8.5164824982e-05 0)
(0.0017916304915 -7.20336119293e-05 0)
(0.00181563120189 -5.76283714931e-05 0)
(0.00183413491893 -4.21942674005e-05 0)
(0.00184682473805 -2.6022815726e-05 0)
(0.00185349268331 -9.44207036473e-06 0)
(0.0018540500006 7.20179424767e-06 0)
(0.00184852981857 2.35685898036e-05 0)
(0.001837081063 3.93477108912e-05 0)
(0.00181995493041 5.42753902638e-05 0)
(0.00179748705642 6.81419440745e-05 0)
(0.00177007915893 8.07891425909e-05 0)
(0.00173818301468 9.21016512037e-05 0)
(0.00170228771418 0.000101997510281 0)
(0.001662909639 0.000110420781098 0)
(0.00162058410794 0.000117337450092 0)
(0.00157585762434 0.000122734703108 0)
(0.00152927973907 0.000126622959082 0)
(0.00148139385979 0.000129039178466 0)
(0.00143272695418 0.000130049492978 0)
(0.00138377875183 0.000129749538927 0)
(0.00133501144823 0.000128261765449 0)
(0.00128684095425 0.000125729932815 0)
(0.0012396304941 0.000122311682183 0)
(0.00119368697237 0.000118170345394 0)
(0.00114926013174 0.000113467115825 0)
(0.00110654419668 0.000108354428488 0)
(0.00106568149128 0.000102971029031 0)
(0.00102676743493 9.7438857635e-05 0)
(0.000989856336658 9.18616051495e-05 0)
(0.00095496749018 8.6324638866e-05 0)
(0.00092209118291 8.08959344569e-05 0)
(0.000891194347448 7.56276610996e-05 0)
(0.000862225686303 7.05581190371e-05 0)
(0.000835120183455 6.57137974909e-05 0)
(0.000809802977841 6.11113897179e-05 0)
(0.000786192616193 5.67596614906e-05 0)
(0.000764203729311 5.26611162479e-05 0)
(0.000743749190467 4.88134341093e-05 0)
(0.000724741820661 4.52106849546e-05 0)
(0.00070709570567 4.18443298143e-05 0)
(0.000690727186365 3.87040325576e-05 0)
(0.000675555578224 3.57783070115e-05 0)
(0.000661503669403 3.30550250493e-05 0)
(0.000648498039973 3.05218097623e-05 0)
(0.000636469238289 2.81663356487e-05 0)
(0.000625351844339 2.59765551083e-05 0)
(0.000615084444397 2.39408680185e-05 0)
(0.000605609536385 2.20482487453e-05 0)
(0.000596873381107 2.02883429561e-05 0)
(0.000588825810829 1.86515448622e-05 0)
(0.000581420003575 1.71290642642e-05 0)
(0.000574612228888 1.57129917476e-05 0)
(0.000568361568731 1.43963697498e-05 0)
(0.000562629615609 1.31732766898e-05 0)
(0.000557380149115 1.20389309715e-05 0)
(0.000552578791999 1.09898209868e-05 0)
(0.000548192647993 1.00238659773e-05 0)
(0.000544189926539 9.1406097474e-06 0)
(0.00054053956512 8.34144337343e-06 0)
(0.000537210869397 7.62984116773e-06 0)
(0.000534173206595 7.01157086277e-06 0)
(0.00053139581053 6.49479338151e-06 0)
(0.000528847788883 6.08987841356e-06 0)
(0.000526498461661 5.80858562401e-06 0)
(0.000524318184415 5.66190836452e-06 0)
(0.0005222797357 5.65516769533e-06 0)
(0.000520359869301 5.77760337262e-06 0)
(0.000518538781687 5.98191908062e-06 0)
(0.000516791045046 6.15152732682e-06 0)
(0.00121288344098 0.000152556464087 0)
(0.00124189980753 0.000326330727026 0)
(0.00126622992411 0.000396539933052 0)
(0.00127292609469 0.000405074489853 0)
(0.00126223497527 0.000383167236629 0)
(0.00123878719953 0.000348642532814 0)
(0.00120741029336 0.000310600353818 0)
(0.00117192908684 0.000273376314399 0)
(0.00113507289876 0.000238855168614 0)
(0.00109867804508 0.000207695465752 0)
(0.00106392153174 0.000179960319916 0)
(0.00103151627836 0.000155439543305 0)
(0.00100185830444 0.00013381293786 0)
(0.000975132762747 0.000114731639549 0)
(0.000951388465617 9.78570360311e-05 0)
(0.000930589431174 8.2877752286e-05 0)
(0.000912650085444 6.95154347337e-05 0)
(0.000897459013161 5.75249877497e-05 0)
(0.000884894766755 4.66922418877e-05 0)
(0.000874836210666 3.68306091733e-05 0)
(0.000867169131569 2.7777518199e-05 0)
(0.000861790314507 1.93910136539e-05 0)
(0.000858609911961 1.1546688714e-05 0)
(0.000857552672181 4.13500701639e-06 0)
(0.000858558411821 -2.94098432448e-06 0)
(0.00086158198582 -9.76755459013e-06 0)
(0.000866592928928 -1.64218627608e-05 0)
(0.000873574882527 -2.29732352043e-05 0)
(0.000882524863324 -2.94841374006e-05 0)
(0.000893452403287 -3.60108720013e-05 0)
(0.000906378568739 -4.26040103852e-05 0)
(0.000921334846797 -4.93085564331e-05 0)
(0.000938361871765 -5.6163833348e-05 0)
(0.000957507950884 -6.32030772812e-05 0)
(0.000978827337274 -7.045271623e-05 0)
(0.00100237818771 -7.79313098724e-05 0)
(0.00102822013424 -8.56481274648e-05 0)
(0.00105641139221 -9.36013483838e-05 0)
(0.00108700532462 -0.000101775886397 0)
(0.00112004638546 -0.0001101408672 0)
(0.00115556537608 -0.000118646833128 0)
(0.00119357397264 -0.000127222811763 0)
(0.00123405852372 -0.000135773467975 0)
(0.00127697318094 -0.000144176657975 0)
(0.00132223251661 -0.000152281808992 0)
(0.00136970390237 -0.00015990963722 0)
(0.0014192000676 -0.000166853756042 0)
(0.00147047240965 -0.000172884671434 0)
(0.00152320575968 -0.000177756469788 0)
(0.00157701537192 -0.000181216155477 0)
(0.00163144684967 -0.000183015127036 0)
(0.00168597951195 -0.000182921802432 0)
(0.00174003335042 -0.000180734093635 0)
(0.00179297930513 -0.000176290466267 0)
(0.00184415223733 -0.000169478769256 0)
(0.00189286584263 -0.000160242727543 0)
(0.0019384288715 -0.000148586572189 0)
(0.00198016226049 -0.000134578330472 0)
(0.00201741685007 -0.00011835187227 0)
(0.00204959123192 -0.000100107696684 0)
(0.0020761494066 -8.01131328222e-05 0)
(0.00209663864158 -5.87024328955e-05 0)
(0.00211070804094 -3.62738587215e-05 0)
(0.00211812635174 -1.32772893575e-05 0)
(0.00211879482698 9.8111988987e-06 0)
(0.00211275081178 3.25233453219e-05 0)
(0.0021001604874 5.44319841497e-05 0)
(0.00208130252842 7.51751446811e-05 0)
(0.00205654680749 9.44657096463e-05 0)
(0.00202633315799 0.000112086839945 0)
(0.00199115382686 0.000127879338129 0)
(0.00195154036539 0.00014172848931 0)
(0.0019080537329 0.000153554410829 0)
(0.00186127614145 0.000163306842891 0)
(0.00181180339728 0.000170964438619 0)
(0.00176023654196 0.000176537866538 0)
(0.00170717192289 0.000180074674679 0)
(0.00165318963985 0.000181663094524 0)
(0.00159884119365 0.000181432499467 0)
(0.00154463764543 0.000179549575118 0)
(0.00149103958655 0.000176210599517 0)
(0.00143844986912 0.000171631121831 0)
(0.00138720955258 0.000166034678024 0)
(0.0013375970372 0.000159642078386 0)
(0.00128982997957 0.000152662402767 0)
(0.00124406936459 0.000145286324045 0)
(0.00120042503788 0.000137681899089 0)
(0.00115896204669 0.000129992610736 0)
(0.00111970724781 0.000122337240095 0)
(0.001082655776 0.00011481107731 0)
(0.00104777709754 0.000107488000424 0)
(0.00101502048417 0.000100423025436 0)
(0.000984319829034 9.36550229622e-05 0)
(0.000955597787548 8.720938767e-05 0)
(0.000928769267189 8.11005240775e-05 0)
(0.000903744315131 7.53340731431e-05 0)