/*--------------------------------*- C++ -*----------------------------------*\
  =========                 |
  \\      /  F ield         | OpenFOAM: The Open Source CFD Toolbox
   \\    /   O peration     | Website:  https://openfoam.org
    \\  /    A nd           | Version:  7
     \\/     M anipulation  |
\*---------------------------------------------------------------------------*/
FoamFile
{
    version     2.0;
    format      ascii;
    class       volScalarField;
    location    "2400";
    object      Ci;
}
// * * * * * * * * * * * * * * * * * * * * * * * * * * * * * * * * * * * * * //

dimensions      [0 -3 0 0 1 0 0];

internalField   nonuniform List<scalar> 
8192
(
10.0000000176
9.99999993882
9.999999823
9.99999967567
9.99999949426
9.99999928248
9.99999904337
9.99999877922
9.99999849205
9.99999818434
9.99999785859
9.99999751772
9.99999716434
9.99999680141
9.99999643136
9.99999605703
9.99999568061
9.99999530479
9.99999493146
9.9999945631
9.99999420119
9.99999384789
9.99999350411
9.99999317144
9.99999284993
9.99999254028
9.99999224129
9.99999195249
9.99999167113
9.99999139526
9.99999112041
9.99999084308
9.99999055712
9.99999025766
9.9999899373
9.99998959031
9.99998920891
9.99998878767
9.9999883198
9.99998780159
9.99998722882
9.999986601
9.99998591804
9.9999851839
9.99998440359
9.99998358585
9.99998274072
9.99998188084
9.99998101993
9.99998017255
9.99997935393
9.99997857825
9.9999778603
9.99997721237
9.99997664809
9.99997617777
9.99997581447
9.99997556733
9.99997544931
9.99997546821
9.99997563548
9.99997595501
9.99997643303
9.99997706582
9.99997785117
9.99997877631
9.99997983073
9.9999809947
9.99998225219
9.99998357992
9.99998495912
9.99998636534
9.99998777862
9.99998917484
9.99999053421
9.99999183471
9.99999305881
9.99999418894
9.99999521208
9.99999611716
9.99999689733
9.99999754909
9.9999980724
9.99999847119
9.99999875162
9.99999892368
9.99999899799
9.99999898842
9.99999890776
9.99999877119
9.99999859139
9.99999838262
9.99999815567
9.99999792238
9.99999769038
9.9999974681
9.99999725977
9.99999707045
9.99999690134
9.99999675465
9.99999662922
9.99999652521
9.99999643998
9.99999637244
9.99999631928
9.9999962789
9.99999624796
9.99999622489
9.99999620674
9.99999619234
9.99999617933
9.99999616711
9.99999615403
9.99999614004
9.99999612415
9.9999961068
9.99999608744
9.99999606668
9.99999604396
9.99999601945
9.99999599169
9.99999595946
9.99999591977
9.99999587046
9.99999580994
9.99999574178
9.9999956766
9.99999563179
9.99999999011
9.99999989217
9.99999978405
9.99999966063
9.99999951202
9.99999933527
9.99999912985
9.99999889685
9.99999863819
9.99999835656
9.99999805475
9.99999773587
9.99999740274
9.99999705845
9.99999670561
9.99999634716
9.99999598547
9.99999562328
9.99999526269
9.99999490619
9.99999455547
9.99999421275
9.99999387922
9.99999355654
9.99999324509
9.9999929457
9.99999265766
9.99999238065
9.99999211254
9.99999185162
9.99999159421
9.99999133706
9.99999107496
9.99999080332
9.99999051575
9.99999020669
9.99998986929
9.99998949826
9.99998908761
9.99998863343
9.99998813193
9.99998758199
9.99998698344
9.999986339
9.99998565296
9.99998493222
9.99998418539
9.99998342277
9.99998265607
9.99998189727
9.99998115933
9.99998045397
9.99997979375
9.99997918898
9.99997865128
9.99997818963
9.99997781525
9.99997753651
9.99997736464
9.99997730728
9.99997737447
9.99997757103
9.99997790285
9.999978369
9.99997896868
9.99997969393
9.99998053721
9.9999814848
9.99998252426
9.99998363833
9.99998481154
9.99998602461
9.99998726022
9.99998849816
9.99998972032
9.99999090708
9.99999204137
9.99999310624
9.99999408782
9.99999497388
9.99999575563
9.99999642709
9.9999969856
9.99999743193
9.9999977695
9.99999800507
9.99999814693
9.99999820609
9.9999981937
9.99999812278
9.99999800512
9.99999785355
9.99999767879
9.99999749198
9.99999730107
9.99999711418
9.99999693628
9.99999677249
9.9999966249
9.99999649591
9.99999638532
9.99999629348
9.99999621859
9.99999615974
9.9999961143
9.99999608077
9.99999605633
9.99999603942
9.99999602746
9.9999960192
9.99999601257
9.9999960068
9.99999600043
9.99999599323
9.99999598432
9.99999597396
9.99999596169
9.99999594796
9.99999593236
9.99999591493
9.99999589447
9.99999586971
9.99999583794
9.99999579702
9.99999574585
9.9999956871
9.99999562987
9.99999558578
9.99999998978
9.99999988888
9.99999978975
9.99999968534
9.99999956672
9.99999942966
9.99999927127
9.99999909024
9.99999888617
9.99999866003
9.99999841316
9.99999814783
9.99999786616
9.99999757102
9.99999726473
9.9999969503
9.99999662998
9.99999630677
9.99999598273
9.99999566072
9.99999534249
9.9999950307
9.99999472663
9.99999443257
9.99999414916
9.99999387808
9.99999361904
9.99999337284
9.99999313804
9.99999291433
9.9999926989
9.99999249018
9.999992284
9.99999207758
9.99999186561
9.9999916444
9.99999140801
9.99999115252
9.99999087234
9.99999056422
9.99999022399
9.99998985012
9.99998944099
9.99998899759
9.99998852163
9.9999880169
9.99998748843
9.9999869423
9.99998638609
9.99998582687
9.99998527342
9.99998473242
9.99998421265
9.99998371952
9.99998326155
9.9999828431
9.99998247299
9.99998215549
9.99998190042
9.99998171236
9.99998160161
9.99998157202
9.99998163233
9.99998178351
9.99998203048
9.99998237007
9.99998280266
9.99998332127
9.99998392238
9.99998459625
9.99998533617
9.99998613023
9.99998696881
9.99998783817
9.99998872614
9.99998961786
9.99999049976
9.99999135729
9.9999921772
9.99999294708
9.99999365591
9.99999429521
9.99999485788
9.99999534051
9.99999574083
9.99999606076
9.99999630264
9.99999647292
9.99999657746
9.99999662563
9.99999662515
9.9999965865
9.99999651758
9.99999642835
9.99999632552
9.99999621727
9.99999610829
9.99999600444
9.99999590819
9.9999958231
9.99999574965
9.99999568946
9.9999956415
9.99999560601
9.99999558104
9.99999556605
9.99999555869
9.99999555813
9.99999556206
9.9999955697
9.99999557907
9.99999558968
9.99999559998
9.99999560991
9.99999561841
9.9999956258
9.99999563142
9.99999563584
9.99999563853
9.99999563985
9.99999563874
9.99999563442
9.99999562439
9.99999560648
9.99999557995
9.99999554658
9.99999551506
9.99999547826
9.99999999035
9.99999989095
9.99999979636
9.99999970317
9.999999603
9.99999949183
9.99999936682
9.99999922616
9.99999906873
9.99999889431
9.9999987031
9.99999849602
9.99999827422
9.99999803941
9.99999779333
9.99999753821
9.99999727608
9.99999700941
9.99999674034
9.99999647139
9.99999620465
9.99999594255
9.99999568695
9.99999544004
9.99999520329
9.9999949784
9.99999476625
9.99999456783
9.9999943832
9.9999942124
9.99999405446
9.99999390831
9.99999377188
9.99999364292
9.99999351832
9.99999339485
9.99999326864
9.99999313588
9.99999299251
9.99999283481
9.9999926593
9.99999246313
9.99999224424
9.99999200138
9.9999917345
9.99999144435
9.99999113308
9.9999908032
9.9999904586
9.99999010286
9.99998974067
9.99998937572
9.99998901265
9.99998865472
9.99998830629
9.99998797044
9.99998765181
9.99998735414
9.9999870831
9.99998684351
9.99998664185
9.9999864832
9.99998637327
9.99998631552
9.99998631319
9.99998636702
9.99998647751
9.99998664318
9.99998686273
9.9999871333
9.99998745238
9.99998781595
9.99998822013
9.99998865939
9.99998912813
9.99998961917
9.99999012524
9.99999063794
9.99999114902
9.99999164973
9.99999213187
9.99999258761
9.99999301016
9.99999339391
9.99999373465
9.99999402987
9.99999427849
9.9999944813
9.99999464016
9.99999475862
9.99999484067
9.9999948916
9.99999491642
9.99999492098
9.99999491026
9.99999488962
9.99999486318
9.99999483515
9.99999480833
9.99999478553
9.99999476813
9.9999947576
9.99999475413
9.99999475812
9.99999476887
9.9999947861
9.99999480864
9.99999483583
9.99999486637
9.99999489954
9.99999493414
9.99999496959
9.99999500493
9.99999503987
9.99999507376
9.9999951066
9.99999513807
9.99999516838
9.99999519737
9.99999522521
9.99999525147
9.99999527554
9.99999529606
9.99999531066
9.99999531925
9.9999953201
9.9999953291
9.99999530444
9.99999999015
9.99999989131
9.99999979925
9.99999971124
9.99999962038
9.99999952331
9.99999941755
9.99999930158
9.99999917428
9.99999903522
9.99999888423
9.99999872163
9.9999985479
9.99999836403
9.99999817105
9.99999797046
9.99999776372
9.99999755275
9.99999733927
9.99999712543
9.9999969131
9.99999670451
9.99999650151
9.99999630623
9.99999612033
9.99999594565
9.99999578348
9.99999563512
9.99999550131
9.99999538252
9.99999527878
9.99999518952
9.99999511394
9.99999505028
9.99999499688
9.99999495087
9.99999490981
9.99999487003
9.99999482854
9.99999478146
9.9999947257
9.99999465781
9.99999457524
9.99999447563
9.99999435762
9.99999422025
9.99999406378
9.99999388867
9.99999369662
9.99999348911
9.99999326875
9.99999303736
9.99999279786
9.99999255201
9.99999230282
9.99999205219
9.99999180365
9.99999155989
9.99999132555
9.99999110439
9.9999909018
9.99999072165
9.9999905684
9.99999044415
9.99999035081
9.99999028787
9.99999025484
9.99999024964
9.99999027087
9.99999031628
9.99999038457
9.99999047387
9.99999058306
9.99999071044
9.9999908546
9.9999910136
9.99999118546
9.99999136777
9.9999915578
9.99999175256
9.99999194863
9.99999214268
9.99999233112
9.99999251088
9.99999267884
9.99999283291
9.9999929711
9.99999309271
9.99999319719
9.99999328531
9.99999335785
9.99999341677
9.99999346375
9.99999350139
9.99999353175
9.9999935575
9.99999358056
9.9999936032
9.99999362682
9.99999365306
9.99999368265
9.99999371651
9.99999375472
9.99999379758
9.99999384466
9.99999389581
9.99999395031
9.99999400776
9.99999406733
9.99999412856
9.99999419066
9.99999425325
9.9999943157
9.99999437779
9.9999944391
9.99999449961
9.99999455914
9.99999461783
9.99999467564
9.99999473268
9.99999478887
9.99999484363
9.99999489665
9.99999494496
9.99999499119
9.99999502632
9.99999508108
9.99999507727
9.99999998947
9.9999998918
9.99999980094
9.99999971597
9.99999963044
9.99999954137
9.99999944673
9.99999934528
9.99999923625
9.99999911929
9.99999899424
9.99999886127
9.99999872065
9.999998573
9.999998419
9.99999825967
9.99999809607
9.99999792958
9.99999776161
9.9999975938
9.99999742778
9.99999726537
9.99999710832
9.99999695839
9.99999681741
9.99999668684
9.99999656845
9.99999646309
9.99999637242
9.99999629627
9.9999962362
9.99999619058
9.99999616086
9.99999614369
9.99999614034
9.99999614578
9.99999616088
9.99999617947
9.99999620169
9.99999622114
9.99999623706
9.99999624383
9.99999624005
9.99999622159
9.99999618711
9.99999613426
9.99999606259
9.99999597137
9.99999586142
9.99999573332
9.99999558884
9.9999954294
9.99999525722
9.99999507417
9.99999488267
9.99999468515
9.99999448456
9.99999428448
9.99999408885
9.99999390254
9.99999373002
9.99999357609
9.99999344369
9.99999333509
9.9999932497
9.99999318616
9.99999314087
9.99999311042
9.99999309045
9.99999307748
9.99999306801
9.9999930595
9.99999304984
9.99999303754
9.99999302172
9.99999300181
9.99999297805
9.99999295065
9.99999292058
9.99999288842
9.99999285532
9.99999282181
9.99999278885
9.99999275679
9.99999272631
9.99999269757
9.99999267109
9.99999264702
9.99999262585
9.99999260789
9.99999259365
9.99999258361
9.99999257832
9.99999257833
9.99999258413
9.9999925962
9.99999261486
9.9999926404
9.99999267285
9.99999271226
9.99999275835
9.99999281092
9.99999286943
9.99999293346
9.99999300231
9.99999307544
9.99999315209
9.99999323172
9.99999331358
9.99999339719
9.99999348194
9.99999356745
9.99999365328
9.99999373921
9.99999382497
9.9999939105
9.99999399573
9.99999408071
9.99999416554
9.99999425015
9.99999433486
9.9999944186
9.9999945026
9.99999458167
9.99999466374
9.99999472852
9.99999482696
9.999994845
9.99999998995
9.99999989373
9.99999980395
9.99999972047
9.99999963772
9.99999955313
9.99999946494
9.99999937216
9.9999992742
9.99999917088
9.9999990621
9.99999894801
9.99999882884
9.99999870503
9.99999857712
9.99999844586
9.9999983121
9.99999817686
9.99999804131
9.9999979067
9.99999777449
9.999997646
9.99999752301
9.99999740665
9.99999729911
9.99999720092
9.99999711485
9.99999704015
9.99999698063
9.99999693332
9.99999690368
9.99999688539
9.99999688626
9.99999689568
9.99999692417
9.99999695671
9.99999700586
9.99999705355
9.99999711251
9.99999716449
9.99999721972
9.99999726308
9.99999730051
9.99999732203
9.99999732961
9.99999731823
9.99999728802
9.99999723737
9.99999716662
9.99999707615
9.99999696726
9.99999684141
9.9999967006
9.99999654695
9.99999638294
9.99999621134
9.99999603543
9.99999585919
9.99999568719
9.99999552478
9.99999537725
9.99999524968
9.99999514559
9.99999506678
9.99999501248
9.99999497995
9.99999496467
9.99999496135
9.99999496435
9.99999496825
9.99999496814
9.99999495968
9.99999493937
9.9999949043
9.99999485241
9.99999478238
9.99999469382
9.99999458715
9.9999944636
9.99999432502
9.99999417379
9.99999401265
9.99999384461
9.99999367277
9.9999935002
9.99999332992
9.99999316467
9.99999300702
9.99999285918
9.99999272309
9.99999260028
9.99999249202
9.99999239915
9.99999232226
9.99999226155
9.99999221702
9.9999921883
9.99999217492
9.9999921761
9.99999219099
9.99999221855
9.99999225774
9.99999230738
9.99999236635
9.99999243348
9.99999250771
9.99999258798
9.99999267335
9.99999276293
9.99999285599
9.99999295183
9.99999304992
9.99999314978
9.99999325107
9.99999335351
9.99999345691
9.99999356123
9.99999366631
9.9999937724
9.999993879
9.99999398706
9.9999940943
9.99999420432
9.99999430772
9.99999442059
9.99999450773
9.99999464436
9.99999467834
9.99999999011
9.99999989559
9.99999980751
9.9999997257
9.999999645
9.9999995632
9.99999947888
9.9999993913
9.99999930007
9.99999920513
9.9999991065
9.99999900431
9.99999889879
9.99999879031
9.99999867932
9.9999985664
9.99999845229
9.99999833776
9.99999822389
9.99999811151
9.99999800218
9.99999789651
9.9999977968
9.99999770289
9.9999976184
9.9999975413
9.99999747773
9.9999974219
9.99999738448
9.99999735298
9.99999734569
9.9999973395
9.99999736407
9.99999738162
9.99999743625
9.99999747341
9.99999755152
9.99999760204
9.99999769178
9.99999774756
9.99999783306
9.99999788403
9.99999794873
9.99999798277
9.99999801342
9.99999801798
9.99999800704
9.99999797285
9.99999791837
9.99999784266
9.99999774737
9.99999763378
9.99999750402
9.99999736027
9.99999720506
9.99999704152
9.99999687296
9.99999670424
9.99999654017
9.99999638768
9.99999625261
9.99999614202
9.99999605958
9.9999960084
9.99999598653
9.99999599122
9.9999960158
9.99999605435
9.99999609915
9.99999614406
9.9999961825
9.99999620939
9.99999621999
9.99999621047
9.99999617778
9.99999611947
9.99999603444
9.99999592207
9.9999957833
9.99999561923
9.99999543253
9.99999522573
9.99999500276
9.99999476716
9.99999452354
9.99999427583
9.99999402866
9.9999937858
9.99999355132
9.99999332838
9.9999931201
9.99999292875
9.99999275634
9.99999260411
9.999992473
9.99999236328
9.99999227493
9.99999220748
9.99999216015
9.99999213194
9.99999212161
9.99999212783
9.99999214914
9.99999218412
9.99999223129
9.99999228929
9.99999235677
9.99999243256
9.99999251551
9.99999260468
9.99999269918
9.99999279831
9.99999290142
9.99999300802
9.9999931177
9.9999932301
9.99999334511
9.99999346228
9.99999358203
9.99999370317
9.99999382757
9.99999395095
9.99999408035
9.99999420021
9.99999433721
9.99999443785
9.99999460584
9.99999464607
9.99999999053
9.9999998969
9.99999980915
9.99999972828
9.99999964906
9.9999995693
9.99999948769
9.99999940362
9.99999931685
9.99999922737
9.9999991353
9.99999904079
9.99999894408
9.99999884543
9.99999874532
9.99999864412
9.99999854264
9.99999844125
9.99999834129
9.99999824283
9.99999814817
9.99999805639
9.99999797171
9.99999789067
9.99999782139
9.99999775494
9.99999770713
9.99999765811
9.99999763826
9.99999760761
9.99999762205
9.99999760806
9.99999766189
9.99999766022
9.99999775516
9.99999776017
9.99999789128
9.99999789862
9.9999980513
9.99999805995
9.99999821012
9.99999822118
9.9999983414
9.99999835263
9.99999842264
9.99999842356
9.99999843715
9.99999841203
9.99999837398
9.99999831154
9.99999822971
9.99999812884
9.99999801068
9.99999787743
9.99999773123
9.9999975751
9.99999741229
9.99999724769
9.99999708682
9.99999693707
9.99999680588
9.99999670096
9.99999662771
9.99999658905
9.99999658378
9.99999660773
9.99999665421
9.99999671568
9.99999678446
9.99999685324
9.99999691563
9.99999696596
9.99999699974
9.99999701294
9.99999700251
9.99999696582
9.99999690138
9.99999680823
9.99999668643
9.99999653659
9.9999963602
9.99999615933
9.99999593686
9.99999569614
9.99999544109
9.99999517594
9.99999490513
9.99999463312
9.99999436427
9.9999941027
9.99999385212
9.99999361581
9.9999933965
9.99999319638
9.99999301703
9.99999285954
9.99999272442
9.99999261176
9.99999252121
9.9999924521
9.99999240346
9.99999237414
9.99999236284
9.99999236817
9.99999238871
9.99999242306
9.99999246986
9.99999252784
9.99999259581
9.99999267268
9.99999275752
9.99999284943
9.99999294772
9.99999305169
9.99999316088
9.99999327466
9.99999339295
9.99999351483
9.9999936411
9.99999376945
9.99999390323
9.99999403526
9.99999417716
9.99999430541
9.9999944596
9.99999456514
9.99999475744
9.99999479411
9.99999999099
9.99999989798
9.99999981156
9.99999973136
9.99999965277
9.99999957394
9.99999949377
9.99999941172
9.99999932765
9.99999924159
9.99999915366
9.99999906404
9.99999897297
9.99999888061
9.9999987875
9.99999869373
9.99999860036
9.99999850713
9.99999841611
9.99999832594
9.99999824087
9.99999815667
9.99999808227
9.99999800686
9.99999794926
9.99999788449
9.99999785165
9.99999779708
9.99999779937
9.9999977506
9.99999780119
9.99999774837
9.99999786263
9.99999779068
9.99999798277
9.99999787538
9.99999815042
9.99999799899
9.99999834158
9.99999815633
9.99999852213
9.99999833572
9.99999865843
9.99999851102
9.99999873083
9.99999864054
9.99999873713
9.99999868296
9.99999867984
9.99999862091
9.99999855448
9.99999846444
9.99999835664
9.99999823215
9.99999809259
9.99999794073
9.99999777939
9.99999761404
9.9999974503
9.99999729775
9.99999716485
9.99999706259
9.999996997
9.99999697318
9.99999698818
9.99999703753
9.99999711118
9.99999720069
9.99999729578
9.99999738875
9.99999747181
9.99999753955
9.99999758738
9.99999761207
9.99999761129
9.99999758293
9.99999752655
9.99999744144
9.99999732864
9.99999718837
9.99999702262
9.9999968325
9.99999662093
9.99999639004
9.99999614371
9.99999588496
9.99999561833
9.99999534745
9.99999507685
9.99999481016
9.99999455145
9.99999430384
9.99999407054
9.99999385381
9.99999365577
9.99999347773
9.99999332072
9.99999318513
9.99999307108
9.99999297822
9.99999290598
9.9999928535
9.99999281977
9.99999280365
9.99999280395
9.99999281944
9.9999928489
9.99999289119
9.99999294518
9.99999300985
9.99999308426
9.99999316755
9.99999325898
9.99999335778
9.99999346347
9.99999357524
9.99999369307
9.99999381558
9.99999394404
9.9999940749
9.99999421329
9.99999434858
9.99999449778
9.9999946283
9.99999479394
9.99999489756
9.99999510782
9.99999513363
9.99999999093
9.99999989748
9.99999980981
9.99999972959
9.9999996515
9.99999957348
9.99999949445
9.99999941392
9.99999933179
9.99999924809
9.99999916299
9.9999990766
9.99999898926
9.9999989009
9.99999881232
9.99999872309
9.99999863491
9.99999854633
9.99999846108
9.999998375
9.99999829641
9.99999821465
9.99999814814
9.9999980716
9.99999802523
9.99999795227
9.99999793834
9.99999786205
9.99999789961
9.99999780383
9.99999792196
9.99999777687
9.999998017
9.99999777699
9.99999819039
9.9999978
9.99999843358
9.99999784862
9.99999871386
9.9999979391
9.99999897119
9.99999809663
9.99999913556
9.99999832947
9.99999916777
9.99999859394
9.99999909268
9.99999879566
9.999998975
9.99999885487
9.99999884715
9.99999876813
9.9999986841
9.99999857932
9.99999845657
9.99999831793
9.99999816583
9.99999800473
9.99999784153
9.99999768627
9.99999755047
9.9999974461
9.99999738251
9.99999736443
9.99999738992
9.99999745141
9.99999753821
9.9999976389
9.99999774309
9.99999784123
9.99999792572
9.99999799061
9.99999803242
9.99999804846
9.99999803757
9.99999799912
9.9999979337
9.99999784223
9.99999772618
9.99999758693
9.99999742602
9.99999724501
9.9999970457
9.99999683019
9.99999660091
9.99999636074
9.99999611275
9.9999958604
9.99999560706
9.99999535642
9.99999511175
9.99999487623
9.99999465255
9.99999444319
9.99999425003
9.99999407465
9.99999391807
9.99999378101
9.9999936637
9.99999356614
9.99999348794
9.99999342859
9.99999338729
9.99999336321
9.99999335536
9.99999336276
9.99999338439
9.99999341927
9.99999346643
9.99999352497
9.99999359404
9.99999367285
9.99999376069
9.99999385679
9.99999396073
9.99999407149
9.99999418927
9.99999431215
9.99999444207
9.99999457404
9.99999471528
9.99999485143
9.99999500524
9.99999513474
9.9999953081
9.99999540613
9.99999562918
9.99999564076
9.99999999162
9.9999998976
9.99999981052
9.99999972954
9.99999965045
9.99999957173
9.99999949247
9.99999941217
9.99999933075
9.99999924815
9.9999991646
9.99999908002
9.99999899491
9.99999890884
9.99999882306
9.99999873628
9.9999986514
9.99999856495
9.99999848357
9.99999839851
9.99999832485
9.99999824158
9.99999818246
9.9999980992
9.99999806605
9.99999797584
9.99999798828
9.99999787363
9.99999796578
9.99999778979
9.99999801988
9.99999771406
9.9999981762
9.99999762798
9.99999845973
9.99999751066
9.99999888074
9.99999735602
9.99999940817
9.99999720144
9.99999993969
9.99999714832
10.0000003023
9.99999733067
10.0000003306
9.99999780185
10.0000000123
9.9999984145
9.99999955422
9.99999887719
9.99999920523
9.99999901724
9.99999900082
9.99999890943
9.99999880414
9.99999867967
9.99999853487
9.99999837496
9.99999820762
9.99999804656
9.99999790429
9.99999779831
9.99999774101
9.99999774118
9.9999977928
9.99999788543
9.99999800222
9.99999813041
9.9999982568
9.99999837119
9.99999846375
9.99999852819
9.99999856072
9.99999855952
9.99999852504
9.99999845817
9.99999836222
9.99999823978
9.99999809512
9.99999793056
9.99999774961
9.99999755369
9.99999734561
9.99999712658
9.99999689936
9.99999666558
9.99999642827
9.99999618959
9.9999959527
9.99999572001
9.99999549448
9.99999527854
9.99999507466
9.99999488458
9.99999471004
9.99999455213
9.9999944118
9.99999428951
9.99999418552
9.99999409973
9.99999403188
9.99999398148
9.99999394789
9.99999393038
9.99999392816
9.99999394038
9.99999396619
9.99999400476
9.99999405527
9.99999411695
9.99999418905
9.99999427085
9.99999436174
9.99999446094
9.99999456811
9.99999468211
9.99999480336
9.99999492941
9.99999506295
9.99999519757
9.99999534259
9.99999548
9.99999563814
9.99999576622
9.99999594562
9.99999603743
9.9999962696
9.99999626741
9.99999999105
9.99999989538
9.99999980555
9.99999972352
9.99999964385
9.99999956471
9.99999948524
9.99999940498
9.99999932389
9.99999924184
9.99999915914
9.99999907547
9.99999899164
9.99999890666
9.99999882249
9.99999873665
9.99999865371
9.99999856752
9.99999848859
9.99999840228
9.9999983322
9.99999824462
9.99999819191
9.99999809827
9.99999807833
9.99999796551
9.99999800678
9.99999784436
9.999998
9.99999772394
9.99999809202
9.99999757811
9.99999833263
9.99999735936
9.99999878815
9.99999700018
9.99999952821
9.99999643641
10.0000005809
9.99999567081
10.0000018455
9.99999487259
10.0000029978
9.999994436
10.0000035156
9.99999483257
10.0000029919
9.999996176
10.00000162
9.99999786783
10.0000002377
9.99999900187
9.99999951198
9.9999993037
9.99999926654
9.99999917827
9.99999905462
9.99999891029
9.99999875679
9.99999860038
9.99999845315
9.99999834485
9.99999830207
9.99999832382
9.99999838823
9.99999847325
9.99999857032
9.9999986782
9.99999879433
9.99999890646
9.99999899945
9.99999905845
9.99999907555
9.9999990481
9.99999897821
9.99999887024
9.99999873037
9.99999856492
9.99999837995
9.99999818041
9.99999797003
9.99999775159
9.99999752703
9.99999729818
9.99999706659
9.99999683418
9.99999660282
9.99999637475
9.99999615204
9.99999593691
9.99999573133
9.9999955371
9.99999535597
9.99999518957
9.99999503886
9.99999490474
9.99999478765
9.99999468792
9.99999460552
9.99999454034
9.99999449194
9.99999445989
9.99999444352
9.99999444219
9.99999445513
9.99999448161
9.99999452082
9.99999457204
9.99999463451
9.99999470754
9.99999479045
9.99999488254
9.99999498328
9.99999509183
9.99999520798
9.99999533036
9.99999545969
9.99999559295
9.99999573363
9.99999587384
9.99999602507
9.99999616576
9.99999632947
9.99999645749
9.99999664269
9.99999672962
9.99999696846
9.99999695502
9.99999999196
9.99999989485
9.99999980494
9.99999972085
9.99999963867
9.99999955729
9.99999947607
9.9999993945
9.99999931257
9.99999922996
9.99999914708
9.99999906328
9.99999897969
9.99999889469
9.99999881102
9.99999872492
9.99999864266
9.99999855554
9.99999847754
9.99999838897
9.99999832049
9.99999822824
9.99999817889
9.99999807618
9.999998064
9.99999793359
9.99999799326
9.99999779542
9.99999799473
9.99999764369
9.99999811511
9.99999743532
9.9999984327
9.99999708453
9.99999907372
9.99999644491
10.0000002208
9.99999531198
10.0000020805
9.99999349427
10.0000047499
9.99999101787
10.0000079339
9.99998845834
10.0000106388
9.99998711523
10.0000113022
9.99998843142
10.0000089223
9.99999245515
10.0000046127
9.99999693203
10.0000011694
9.99999934102
9.99999991892
9.99999976861
9.99999965555
9.99999956442
9.99999944679
9.99999926669
9.99999909044
9.99999905293
9.99999913366
9.99999915159
9.99999896123
9.99999860547
9.99999826294
9.99999811218
9.99999821594
9.99999851534
9.99999888758
9.99999921848
9.99999944137
9.9999995365
9.99999951597
9.99999940344
9.99999922602
9.99999900514
9.99999875923
9.99999849978
9.99999823634
9.99999797329
9.99999771456
9.99999746069
9.99999721305
9.99999697126
9.99999673651
9.99999650915
9.99999629104
9.99999608331
9.99999588805
9.99999570653
9.99999554039
9.99999539054
9.9999952584
9.99999514437
9.99999504871
9.9999949713
9.99999491189
9.99999486996
9.99999484491
9.99999483601
9.99999484245
9.99999486342
9.99999489807
9.99999494553
9.99999500503
9.99999507572
9.99999515694
9.99999524784
9.99999534791
9.99999545624
9.99999557257
9.99999569568
9.99999582583
9.99999596095
9.99999610265
9.99999624659
9.99999639792
9.99999654631
9.99999670647
9.99999685214
9.99999702327
9.99999715216
9.99999734377
9.99999742643
9.99999767056
9.99999764676
9.99999999094
9.99999989125
9.99999979744
9.99999971146
9.99999962778
9.99999954491
9.99999946231
9.99999937949
9.99999929655
9.99999921301
9.99999912945
9.99999904493
9.99999896084
9.99999887511
9.99999879098
9.99999870391
9.99999862102
9.99999853247
9.99999845347
9.99999836282
9.99999829265
9.99999819768
9.99999814548
9.99999803976
9.99999802273
9.99999789002
9.99999794159
9.99999774368
9.99999793083
9.99999758197
9.99999804146
9.99999735562
9.99999836759
9.99999695455
9.99999908354
9.99999615857
10.000000498
9.99999457741
10.0000031006
9.9999916333
10.0000075051
9.99998673787
10.0000140848
9.99997989743
10.0000221079
9.9999727817
10.0000286953
9.99996933694
10.0000292418
9.99997375374
10.0000213247
9.99998523159
10.00000957
9.99999602286
10.0000023037
10.0000002585
10.0000006154
10.000000792
10.000000569
10.0000001673
10.0000003352
10.0000011371
10.0000010573
9.99999835949
9.99999294224
9.99998654277
9.99998152534
9.99997948144
9.99998060615
9.99998396291
9.99998820378
9.99999219738
9.99999531989
9.99999741957
9.99999863403
9.99999920405
9.99999935843
9.99999926761
9.99999904119
9.99999874312
9.99999840908
9.99999806037
9.99999771128
9.99999737302
9.99999705383
9.99999675955
9.99999649291
9.99999625468
9.99999604363
9.99999585805
9.99999569558
9.99999555442
9.99999543271
9.99999532938
9.99999524325
9.99999517448
9.99999512246
9.99999508686
9.99999506713
9.99999506283
9.99999507333
9.99999509802
9.9999951362
9.99999518713
9.99999525015
9.9999953244
9.99999540938
9.99999550409
9.99999560829
9.99999572075
9.99999584166
9.99999596928
9.99999610454
9.99999624468
9.999996392
9.99999654169
9.99999669884
9.9999968544
9.99999701945
9.99999717572
9.99999734779
9.9999974964
9.99999767757
9.99999780286
9.99999800261
9.99999807311
9.99999832238
9.99999827592
9.99999999207
9.9999998903
9.9999997959
9.99999970682
9.99999961944
9.99999953309
9.99999944749
9.99999936211
9.99999927702
9.9999991916
9.99999910642
9.99999902036
9.99999893483
9.99999884765
9.99999876195
9.99999867337
9.99999858843
9.99999849831
9.99999841618
9.99999832427
9.99999824886
9.99999815409
9.99999809242
9.99999799123
9.99999795605
9.99999783869
9.99999785411
9.99999769615
9.99999781011
9.9999975533
9.99999786603
9.99999737476
9.99999810348
9.9999970666
9.9999986903
9.99999640672
9.99999997476
9.99999491397
10.0000026489
9.9999916514
10.0000079442
9.99998507768
10.0000176273
9.99997336616
10.0000331436
9.99995604731
10.0000530409
9.99993742079
10.0000693822
9.99992894098
10.0000686993
9.99994264653
10.0000451981
9.99997339712
10.0000162261
9.99999608166
10.0000037048
10.0000026142
10.0000007293
10.0000015415
10.0000066067
10.0000073416
9.99998831977
9.99994256723
9.99987966265
9.99981964261
9.99978133294
9.99977369965
9.99979408746
9.99983220615
9.99987601609
9.99991615063
9.99994770162
9.99996970583
9.99998357729
9.99999156559
9.99999578718
9.99999782826
9.99999872165
9.99999906088
9.99999914893
9.99999911336
9.99999899699
9.99999880769
9.99999855108
9.99999823758
9.99999788619
9.99999751781
9.99999715355
9.9999968097
9.99999649819
9.9999962254
9.99999599392
9.99999580322
9.9999956508
9.99999553355
9.99999544863
9.99999539249
9.99999536201
9.99999535432
9.99999536709
9.99999539812
9.99999544585
9.99999550846
9.99999558506
9.99999567388
9.99999577477
9.99999588553
9.99999600704
9.99999613604
9.99999627508
9.99999641879
9.99999657259
9.99999672724
9.99999689315
9.99999705426
9.99999722974
9.99999739152
9.99999757429
9.99999772854
9.99999791732
9.99999805141
9.99999824766
9.99999834014
9.99999855226
9.99999856423
9.99999882051
9.99999868073
9.99999999068
9.9999998857
9.9999997866
9.99999969504
9.99999960547
9.99999951682
9.9999994289
9.99999934127
9.99999925403
9.99999916658
9.99999907939
9.99999899143
9.99999890384
9.99999881479
9.99999872669
9.99999863624
9.99999854811
9.99999845627
9.99999836944
9.99999827655
9.99999819358
9.99999810012
9.99999802535
9.99999793141
9.99999787197
9.99999777603
9.99999774394
9.99999763967
9.99999765674
9.99999752522
9.99999763523
9.99999742476
9.99999772583
9.99999729828
9.99999802945
9.99999701803
9.99999878751
9.99999623016
10.0000005893
9.99999404391
10.0000048043
9.999988452
10.0000142845
9.99997560918
10.0000338577
9.99995003363
10.0000687155
9.9999085815
10.0001172363
9.99986101338
10.0001585663
9.99983993729
10.000152717
9.9998811711
10.0000859376
9.99995878707
10.0000250538
9.99999627999
9.9999993188
10.000023465
10.0000341131
9.99993635328
9.99964837197