/*--------------------------------*- C++ -*----------------------------------*\
  =========                 |
  \\      /  F ield         | OpenFOAM: The Open Source CFD Toolbox
   \\    /   O peration     | Website:  https://openfoam.org
    \\  /    A nd           | Version:  7
     \\/     M anipulation  |
\*---------------------------------------------------------------------------*/
FoamFile
{
    version     2.0;
    format      ascii;
    class       volScalarField;
    location    "2400";
    object      p;
}
// * * * * * * * * * * * * * * * * * * * * * * * * * * * * * * * * * * * * * //

dimensions      [0 2 -2 0 0 0 0];

internalField   nonuniform List<scalar> 
8192
(
0.00058330911596
0.000411759827248
0.00032614540349
0.000282034411695
0.000257012701847
0.000241779022052
0.000231914902782
0.000225175472434
0.00022035366961
0.000216765393669
0.000214003271874
0.000211813407955
0.000210030959337
0.000208545006923
0.00020727859103
0.000206176907709
0.000205200064679
0.000204318479323
0.000203509861484
0.000202757177978
0.0002020472436
0.000201369722783
0.000200716407016
0.000200080681277
0.000199457122386
0.000198841190577
0.000198228987611
0.000197617062354
0.000197002249877
0.000196381533875
0.000195751925136
0.000195110349239
0.000194453538284
0.000193777922305
0.000193079516915
0.000192353803982
0.000191595603006
0.000190798931238
0.000189956851855
0.000189061310493
0.000188102962596
0.000187070996288
0.000185952959165
0.000184734601451
0.000183399753497
0.000181930261309
0.000180306010031
0.000178505070356
0.000176504005709
0.000174278376566
0.000171803470674
0.000169055272653
0.000166011663169
0.000162653808132
0.000158967664912
0.000154945500161
0.000150587285582
0.000145901818678
0.000140907407912
0.00013563197507
0.000130112470774
0.000124393582865
0.000118525833685
0.000112563284827
0.000106561147322
0.000100573596281
9.46520104361e-05
8.8843719622e-05
8.31912214403e-05
7.77317646171e-05
7.24971668418e-05
6.75137511579e-05
6.28023227268e-05
5.83781546483e-05
5.42509928089e-05
5.04251199767e-05
4.68995309834e-05
4.36682645731e-05
4.07209141994e-05
3.80433085293e-05
3.56183208726e-05
3.3426744987e-05
3.14481667909e-05
2.9661767892e-05
2.80470132391e-05
2.65841959649e-05
2.52548326101e-05
2.40419175783e-05
2.29300560938e-05
2.19054995787e-05
2.09561083083e-05
2.0071263804e-05
1.92417501697e-05
1.84596191904e-05
1.77180504663e-05
1.70112141236e-05
1.6334141257e-05
1.56826048089e-05
1.50530124145e-05
1.44423113383e-05
1.38479052756e-05
1.32675820424e-05
1.2699451271e-05
1.21418908288e-05
1.15935009712e-05
1.10530650028e-05
1.05195155802e-05
9.99190562827e-06
9.46938320654e-06
8.95116954263e-06
8.43653981704e-06
7.9248062208e-06
7.41530322069e-06
6.90737504075e-06
6.40036596833e-06
5.89361453389e-06
5.38645380028e-06
4.87822149866e-06
4.36828678238e-06
3.85610528013e-06
3.3413235726e-06
2.8239717363e-06
2.30481786656e-06
1.78603174891e-06
1.27247079694e-06
7.74313056872e-07
3.13529980993e-07
-3.35845666119e-10
0.00043439495903
0.000370881545662
0.000321194143136
0.000288545195558
0.000266626220851
0.000251446549393
0.000240627385769
0.000232703874811
0.000226750843677
0.000222169994157
0.000218565339516
0.000215668757185
0.00021329466861
0.000211311934333
0.000209626084466
0.000208167856948
0.000206885653405
0.00020574047306
0.000204702443709
0.000203748401289
0.000202860170653
0.000202023323444
0.000201226265981
0.000200459558833
0.000199715401247
0.000198987234116
0.00019826942894
0.000197557039423
0.000196845598253
0.000196130946584
0.000195409087367
0.000194676054337
0.000193927790632
0.000193160032357
0.000192368193339
0.000191547247926
0.000190691609598
0.000189795003779
0.000188850334389
0.000187849544793
0.00018678347559
0.000185641723757
0.000184412510571
0.000183082569125
0.000181637066465
0.00018005957983
0.000178332151098
0.000176435447156
0.000174349055713
0.000172051944351
0.000169523103981
0.000166742385119
0.000163691516282
0.000160355269585
0.000156722711732
0.000152788452998
0.000148553785231
0.000144027585735
0.000139226858884
0.00013417679767
0.000128910280593
0.000123466785108
0.000117890793351
0.00011222986795
0.000106532643897
0.000100846982676
9.52184745289e-05
8.96893534093e-05
8.42977895896e-05
7.9077482654e-05
7.40574503898e-05
6.92619236298e-05
6.47102868841e-05
6.04170405735e-05
5.63917926774e-05
5.26393108632e-05
4.91596752808e-05
4.59485669542e-05
4.29977079923e-05
4.0295444289e-05
3.78274360063e-05
3.55774037382e-05
3.352787223e-05
3.166085904e-05
2.99584689789e-05
2.84033720015e-05
2.69791583461e-05
2.56705773424e-05
2.44636746529e-05
2.33458466745e-05
2.23058317209e-05
2.13336560448e-05
2.04205502961e-05
1.95588487948e-05
1.8741881182e-05
1.79638631757e-05
1.72197911542e-05
1.65053433697e-05
1.58167895018e-05
1.51509091309e-05
1.45049192733e-05
1.38764105093e-05
1.3263291178e-05
1.26637387964e-05
1.20761579905e-05
1.14991440627e-05
1.09314515287e-05
1.0371966867e-05
9.81968496709e-06
9.2736887153e-06
8.73313142865e-06
8.19722185864e-06
7.66521181835e-06
7.13638662749e-06
6.61005907098e-06
6.08556800787e-06
5.56228371774e-06
5.03962325152e-06
4.51708116549e-06
3.99428409724e-06
3.47108284896e-06
2.94770389475e-06
2.42499623919e-06
1.90483370491e-06
1.39077567578e-06
8.8919920522e-07
4.10796423766e-07
4.24992777492e-08
0.0003514459331
0.00032877890658
0.000302788716508
0.000281554576567
0.000265438069653
0.000253129913203
0.000243610599057
0.000236152524401
0.000230233730753
0.000225475089111
0.000221598377976
0.000218397628296
0.000215719075018
0.000213446942323
0.000211493290909
0.000209790727381
0.000208287140032
0.000206941873376
0.000205722927553
0.000204604890926
0.000203567400191
0.000202593982455
0.000201671175892
0.000200787854987
0.000199934707107
0.000199103821596
0.000198288363
0.000197482307432
0.000196680225304
0.000195877099027
0.000195068167369
0.000194248787989
0.000193414312407
0.000192559968908
0.000191680749817
0.000190771300133
0.000189825805472
0.000188837877833
0.000187800438796
0.000186705600643
0.000185544547522
0.000184307420342
0.000182983211579
0.000181559678821
0.000180023289406
0.000178359212108
0.000176551375813
0.000174582618262
0.000172434949831
0.000170089956295
0.000167529359335
0.000164735743042
0.000161693438233
0.000158389535325
0.000154814972876
0.000150965626804
0.000146843306909
0.000142456555313
0.000137821135162
0.000132960102442
0.000127903376147
0.000122686776875
0.000117350592314
0.000111937832463
0.000106492410915
0.000101057488264
9.56741575357e-05
9.0380515879e-05
8.52110699385e-05
8.0196400713e-05
7.53629874815e-05
7.07331111087e-05
6.6324786413e-05
6.21517062838e-05
5.82232084265e-05
5.45442961046e-05
5.11157519067e-05
4.79343782094e-05
4.49933798349e-05
4.2282879741e-05
3.97905344471e-05
3.75021999023e-05
3.5402593927e-05
3.34759076067e-05
3.17063314609e-05
3.00784778988e-05
2.85776960452e-05
2.71902856815e-05
2.59036239361e-05
2.47062211059e-05
2.35877224758e-05
2.25388712659e-05
2.15514457721e-05
2.06181808912e-05
1.97326820416e-05
1.88893370367e-05
1.80832299938e-05
1.73100596767e-05
1.65660639104e-05
1.5847950667e-05
1.51528361578e-05
1.44781896525e-05
1.38217847711e-05
1.31816566272e-05
1.25560643725e-05
1.19434584603e-05
1.134245218e-05
1.07517968576e-05
1.0170360378e-05
9.59710857389e-06
9.03108930898e-06
8.47141902602e-06
7.91727184896e-06
7.36787136416e-06
6.82248562056e-06
6.28042609572e-06
5.74105200975e-06
5.2037819171e-06
4.66811560639e-06
4.13367057794e-06
3.60023946687e-06
3.06787756639e-06
2.53703418694e-06
2.0087479903e-06
1.48493364946e-06
9.6872857536e-07
4.6424735538e-07
5.42800760998e-08
0.000306894354877
0.000298505096189
0.000284312015012
0.000270519389021
0.000259090740338
0.000249815296456
0.000242240450131
0.00023599809402
0.000230810194367
0.000226464243327
0.000222794491595
0.000219669848775
0.000216985817288
0.000214658725282
0.000212621368854
0.000210819616292
0.000209209726692
0.000207756223796
0.000206430209004
0.000205208022866
0.000204070182512
0.000203000536734
0.000201985592245
0.000201013974212
0.000200075991968
0.000199163286963
0.00019826854494
0.000197385258607
0.000196507527524
0.000195629888142
0.000194747167773
0.000193854354847
0.000192946480998
0.000192018511371
0.000191065240073
0.00019008118821
0.000189060502622
0.00018799685402
0.000186883333948
0.000185712350865
0.00018447552676
0.00018316359717
0.00018176631935
0.00018027239575
0.000178669422892
0.000176943879234
0.00017508116933
0.000173065745219
0.000170881328499
0.000168511256848
0.000165938975185
0.000163148682866
0.00016012613325
0.000156859561816
0.000153340695913
0.000149565777701
0.000145536514619
0.000141260859857
0.000136753516686
0.000132036056687
0.000127136553176
0.000122088677752
0.00011693030252
0.00011170177473
0.000106444125772
0.000101197474487
9.59998233721e-05
9.08862669745e-05
8.58885245967e-05
8.10347114565e-05
7.63492360334e-05
7.18527431886e-05
6.75620572561e-05
6.34901135376e-05
5.96458955364e-05
5.60344154304e-05
5.26567830818e-05
4.95104024496e-05
4.65893140787e-05
4.38846745827e-05
4.13853374934e-05
3.90784831033e-05
3.69502414221e-05
3.49862608345e-05
3.31721903933e-05
3.14940605944e-05
2.9938561853e-05
2.849322987e-05
2.7146552536e-05
2.58880147877e-05
2.47080972208e-05
2.35982422282e-05
2.25507989758e-05
2.15589559375e-05
2.06166675254e-05
1.9718579393e-05
1.88599555796e-05
1.80366094451e-05
1.72448395959e-05
1.64813713161e-05
1.57433036983e-05
1.50280623019e-05
1.43333570906e-05
1.36571452092e-05
1.29975982072e-05
1.23530732172e-05
1.17220876997e-05
1.11032973141e-05
1.04954766044e-05
9.89750216537e-06
9.3083380982e-06
8.72702356987e-06
8.15266245356e-06
7.5844150751e-06
7.02149229493e-06
6.4631522762e-06
5.90870058559e-06
5.35749454021e-06
4.8089532239e-06
4.26257522101e-06
3.71796722428e-06
3.17488829586e-06
2.63331693222e-06
2.09354913101e-06
1.55632023422e-06
1.02282665706e-06
4.93966228256e-07
5.62211837091e-08
0.000279279125686
0.000277306337473
0.00026950299051
0.000260306687135
0.000252022500324
0.000244987867696
0.000239045873015
0.000233991244753
0.000229655667846
0.000225909470689
0.000222651379636
0.000219800135068
0.000217289102322
0.00021506289874
0.0002130751634
0.000211286952814
0.000209665496386
0.000208183181759
0.000206816706224
0.000205546359915
0.000204355419135
0.000203229633512
0.000202156793267
0.000201126364476
0.000200129181586
0.000199157187655
0.000198203214027
0.000197260793252
0.00019632399543
0.00019538728646
0.000194445404541
0.000193493248118
0.000192525772914
0.000191537895498
0.000190524401009
0.000189479853035
0.000188398504073
0.000187274205357
0.000186100315413
0.000184869607281
0.000183574175226
0.000182205342911
0.000180753576574
0.000179208408863
0.000177558381702
0.000175791020025
0.000173892852186
0.000171849497134
0.00016964584214
0.000167266336776
0.000164695427007
0.000161918145948
0.00015892086331
0.000155692174755
0.000152223887834
0.000148512038542
0.000144557855408
0.00014036857674
0.000135958015253
0.00013134675068
0.000126561826694
0.000121635865755
0.000116605622894
0.000111510161812
0.000106388971051
0.000101280335666
9.6220200405e-05
9.12415092596e-05
8.63738784141e-05
8.16434949027e-05
7.70731075993e-05
7.26820250824e-05
6.84860768375e-05
6.44975323267e-05
6.07250036929e-05
5.71733795485e-05
5.38438460003e-05
5.07340434701e-05
4.78383836284e-05
4.51485169419e-05
4.26539096118e-05
4.03424697338e-05
3.8201160406e-05
3.62165494365e-05
3.43752644163e-05
3.26643413119e-05
3.10714700115e-05
2.95851497173e-05
2.81947713707e-05
2.68906446994e-05
2.56639857663e-05
2.45068780922e-05
2.34122175727e-05
2.23736486943e-05
2.13854974273e-05
2.04427043786e-05
1.95407605659e-05
1.86756471688e-05
1.7843780022e-05
1.70419590955e-05
1.62673229807e-05
1.55173081447e-05
1.47896126726e-05
1.40821640947e-05
1.33930909397e-05
1.27206975957e-05
1.20634421383e-05
1.14199167598e-05
1.07888305185e-05
1.01689941205e-05
9.55930653389e-06
8.95874323933e-06
8.36634601632e-06
7.78121418337e-06
7.20249732551e-06
6.62938960057e-06
6.06112589069e-06
5.49698023399e-06
4.93626733138e-06
4.37834840185e-06
3.82264346555e-06
3.26865301048e-06
2.7159920158e-06
2.16443325764e-06
1.61392457038e-06
1.06441766646e-06
5.1501012689e-07
5.65981239132e-08
0.000260936214518
0.000261825164159
0.000257776914241
0.000251637594812
0.000245539077568
0.000240103136623
0.000235380214465
0.000231275300382
0.000227681687699
0.000224510792414
0.000221693168922
0.000219173953214
0.000216908663957
0.000214860303123
0.000212997505848
0.00021129335834
0.000209724603922
0.000208271067738
0.000206915206788
0.000205641736774
0.000204437311256
0.000203290240732
0.000202190244872
0.000201128233628
0.000200096113912
0.000199086618897
0.00019809315709
0.000197109679974
0.000196130560255
0.000195150483834
0.000194164354201
0.00019316720251
0.000192154103342
0.000191120094414
0.000190060098586
0.000188968846676
0.000187840799809
0.000186670070209
0.000185450339693
0.000184174775495
0.000182835943669
0.00018142572125
0.000179935209577
0.000178354653149
0.000176673370893
0.000174879710319
0.000172961039345
0.000170903795833
0.000168693619942
0.000166315598313
0.000163754649338
0.000160996072918
0.000158026273685
0.000154833643936
0.000151409564769
0.000147749458557
0.000143853808833
0.000139729054229
0.000135388250381
0.000130851367542
0.00012614506449
0.000121301799565
0.0001163582648
0.000111353352408
0.000106326064031
0.000101313773214
9.63511332757e-05
9.14695623304e-05
8.66970804824e-05
8.20583584307e-05
7.75748180692e-05
7.32646935302e-05
6.91430115196e-05
6.52214927238e-05
6.1508410794e-05
5.80084695149e-05
5.47227694933e-05
5.16489269987e-05
4.87813773289e-05
4.61118519014e-05
4.36299783534e-05
4.13239307124e-05
3.91810566734e-05
3.71884263873e-05
3.53332718107e-05
3.36033089582e-05
3.1986951984e-05
3.04734371237e-05
2.90528772724e-05
2.77162668416e-05
2.64554533485e-05
2.52630885362e-05
2.41325683499e-05
2.30579682655e-05
2.20339782483e-05
2.10558400253e-05
2.01192882223e-05
1.92204961473e-05
1.83560265094e-05
1.75227870293e-05
1.67179907275e-05
1.59391205463e-05
1.51838979379e-05
1.44502550098e-05
1.37363098513e-05
1.30403446612e-05
1.23607863468e-05
1.16961892716e-05
1.10452198824e-05
1.0406642957e-05
9.77930926309e-06
9.1621444298e-06
8.55413888648e-06
7.95433873794e-06
7.36183751497e-06
6.77576878382e-06
6.19529972167e-06
5.61962590133e-06
5.04796778322e-06
4.47956970098e-06
3.9137024e-06
3.34966980866e-06
2.78681780775e-06
2.22453111432e-06
1.66216683807e-06
1.09877532313e-06
5.32306712629e-07
5.73128661095e-08
0.000248061385179
0.000250177656057
0.000248372774128
0.000244348884011
0.00023985621667
0.000235611594033
0.000231804370721
0.000228428961828
0.000225428034238
0.000222741193287
0.000220317453826
0.000218116049974
0.000216104385325
0.000214255864716
0.000212548248871
0.000210962532975
0.000209482207583
0.000208092766985
0.000206781368566
0.00020553658191
0.000204348191332
0.000203207031305
0.000202104843498
0.000201034149362
0.000199988134914
0.00019896054575
0.000197945591079
0.000196937856554
0.000195932220041
0.000194923774441
0.000193907758599
0.000192879489167
0.000191834295085
0.000190767453493
0.000189674125975
0.000188549294018
0.000187387692643
0.000186183741197
0.000184931470429
0.000183624445182
0.000182255682435
0.000180817565032
0.000179301752523
0.000177699092157
0.000175999535547
0.000174192070123
0.000172264679366
0.000170204351991
0.000167997167185
0.000165628489192
0.000163083307487
0.000160346754744
0.000157404820314
0.000154245251063
0.0001508585984
0.000147239340371
0.000143386990762
0.000139307102725
0.000135012063495
0.000130521535771
0.000125862338526
0.000121067547909
0.000116174742572
0.000111223635248
0.000106253644818
0.000101301973389
9.6402556854e-05
9.15857344123e-05
8.68782900147e-05
8.23036791433e-05
7.78822550522e-05
7.3631398975e-05
6.95655165617e-05
6.56959117439e-05
6.20305877944e-05
5.85740526502e-05
5.5327219832e-05
5.22874871452e-05
4.94490366901e-05
4.68033427332e-05
4.43398221555e-05
4.20465354819e-05
3.99108501345e-05
3.79200029156e-05
3.60615314327e-05
3.43235725155e-05
3.26950440307e-05
3.11657347442e-05
2.97263277178e-05
2.8368379439e-05
2.70842720444e-05
2.58671511933e-05
2.4710858102e-05
2.36098611667e-05
2.25591904076e-05
2.1554376475e-05
2.05913950024e-05
1.96666164888e-05
1.87767615491e-05
1.79188611751e-05
1.70902215649e-05
1.6288393044e-05
1.55111426155e-05
1.4756429692e-05
1.40223846084e-05
1.33072895433e-05
1.26095615206e-05
1.19277371921e-05
1.12604591413e-05
1.06064634673e-05
9.96456844282e-06
9.33366405394e-06
8.71270226118e-06
8.10068784019e-06
7.49666969991e-06
6.89973261675e-06
6.30898939375e-06
5.72357353239e-06
5.14263258937e-06
4.56532236821e-06
3.99080169023e-06
3.41822585818e-06
2.84673191183e-06
2.27539508504e-06
1.70310304015e-06
1.1282338345e-06
5.47982533285e-07
5.93071780316e-08
0.00023860957765
0.00024119004615
0.000240733652067
0.000238192412773
0.000234915745494
0.000231598510201
0.000228506104562
0.0002257008443
0.000223168434313
0.000220873345841
0.000218779243041
0.00021685489791
0.000215074827589
0.000213418370463
0.000211868545452
0.000210411099142
0.000209033804934
0.000207725973834
0.000206478118052
0.000205281717051
0.000204129049524
0.000203013066857
0.00020192729256
0.000200865738096
0.000199822829395
0.000198793340626
0.000197772333893
0.000196755102307
0.000195737113799
0.000194713957775
0.000193681297025
0.000192634817906
0.000191570180906
0.000190482970785
0.000189368645443
0.000188222482652
0.000187039523686
0.000185814512866
0.000184541831962
0.000183215428492
0.000181828737063
0.000180374593368
0.000178845141123
0.000177231733722
0.000175524834572
0.000173713923809
0.000171787424344
0.000169732667623
0.0001675359283
0.000165182566395
0.000162657321687
0.000159944803935
0.000157030207895
0.000153900252051
0.000150544298786
0.000146955576361
0.000143132406269
0.000139079345254
0.000134808149138
0.000130338408511
0.000125697589253
0.000120920137055
0.000116045461
0.000111115071113
0.000106169645154
0.000101246836404
9.6380290897e-05
9.15995733453e-05
8.69304720179e-05
8.239543752e-05
7.80139514455e-05
7.38027303449e-05
6.97757319902e-05
6.59439873829e-05
6.23153245361e-05
5.88940805487e-05
5.56809191717e-05
5.26728631482e-05
4.98636004479e-05
4.72440464198e-05
4.48030748383e-05
4.25282985625e-05
4.04067902494e-05
3.84256709627e-05
3.65725381968e-05
3.48357397774e-05
3.32045200197e-05
3.16690713456e-05
3.02205225042e-05
2.88508886115e-05
2.75530012461e-05
2.63204308456e-05
2.51474088996e-05
2.40287542145e-05
2.29598053177e-05
2.19363597861e-05
2.09546204781e-05
2.0011148266e-05
1.91028206556e-05
1.82267956332e-05
1.73804800766e-05
1.65615021209e-05
1.57676869233e-05
1.49970353373e-05
1.42477050682e-05
1.35179939325e-05
1.28063248992e-05
1.21112326223e-05
1.14313512195e-05
1.07654030686e-05
1.0112188429e-05
9.47057570185e-06
8.8394921761e-06
8.21791510751e-06
7.60486301204e-06
6.99938705858e-06
6.40056246832e-06
5.8074797996e-06
5.21923589552e-06
4.63492390265e-06
4.05362078889e-06
3.47436829163e-06
2.89613735458e-06
2.31775325315e-06
1.73773441222e-06
1.15396729933e-06
5.63151059783e-07
6.31229773258e-08
0.000231414542866
0.000234105370318
0.000234458720608
0.000232960776354
0.00023061580033
0.00022803969972
0.000225525453931
0.00022318055736
0.000221025881984
0.00021904849777
0.000217225713381
0.000215534630426
0.000213955228081
0.000212470845281
0.000211067768574
0.000209734620679
0.000208461799538
0.000207241034098
0.000206065054654
0.000204927355129
0.000203822022727
0.000202743614509
0.000201687065636
0.000200647618506
0.000199620765512
0.00019860220056
0.000197587777799
0.00019657347123
0.000195555335993
0.000194529471297
0.00019349198654
0.000192438964988
0.000191366426611
0.000190270289387
0.00018914632835
0.000187990131546
0.000186797051969
0.000185562154392
0.000184280155865
0.000182945358537
0.000181551573429
0.000180092033892
0.000178559297963
0.000176945139876
0.000175240433036
0.000173435030305
0.000171517653238
0.000169475810381
0.000167295776049
0.000164962673928
0.000162460720765
0.00015977368814
0.000156885626485
0.000153781859779
0.000150450206244
0.000146882330701
0.000143075116967
0.000139031972436
0.000134763997188
0.000130290879624
0.000125641182645
0.00012085149753
0.000115964086833
0.000111023311024
0.000106071954807
0.000101148666606
9.62871067377e-05
9.15162490829e-05
8.6861029491e-05
8.23430325116e-05
7.79810186061e-05
7.37912054197e-05
6.97872739568e-05
6.59801399002e-05
6.23775754652e-05
5.89837998085e-05
5.57991881468e-05
5.28202470051e-05
5.00399370198e-05
4.74483179208e-05
4.50333966712e-05
4.27820207921e-05
4.06806790784e-05
3.87161268862e-05
3.68758119814e-05
3.51481196808e-05
3.35224771606e-05
3.19893607633e-05
3.05402441613e-05
2.91675157103e-05
2.78643839745e-05
2.66247829579e-05
2.54432832823e-05
2.43150121574e-05
2.32355829488e-05
2.22010340523e-05
2.12077762499e-05
2.02525475244e-05
1.93323742961e-05
1.84445381171e-05
1.75865469636e-05
1.67561103893e-05
1.59511179065e-05
1.51696200638e-05
1.44098117718e-05
1.36700174974e-05
1.29486780061e-05
1.22443383785e-05
1.1555637062e-05
1.08812957511e-05
1.02201099092e-05
9.57093976428e-06
8.93270161842e-06
8.30435932293e-06
7.68491576134e-06
7.07340417016e-06
6.46887907055e-06
5.87040646082e-06
5.27705262698e-06
4.68787029247e-06
4.10187944557e-06
3.51803729879e-06
2.93518605032e-06
2.35195654146e-06
1.76659016654e-06
1.17663002563e-06
5.78460709331e-07
6.91164744263e-08
0.000225778945432
0.000228420269543
0.00022925583182
0.000228492583519
0.00022686358908
0.000224886925813
0.000222851262354
0.000220889153086
0.000219047526458
0.00021733281241
0.000215735049154
0.000214239344498
0.000212830745281
0.000211495967247
0.000210223750188
0.000209004680123
0.000207830855165
0.00020669554944
0.000205592928146
0.000204517823636
0.000203465566012
0.000202431857061
0.000201412676626
0.000200404212246
0.000199402805047
0.000198404906569
0.000197407045435
0.000196405794064
0.000195397738528
0.000194379451479
0.000193347466454
0.000192298250332
0.000191228174528
0.000190133484226
0.0001890102649
0.000187854405263
0.000186661555632
0.00018542708051
0.000184146003921
0.000182812945813
0.00018142204752
0.000179966884205
0.000178440362244
0.000176834600202
0.000175140793658
0.000173349067556
0.000171448325637
0.000169426116305
0.000167268548027
0.000164960304952
0.00016248483038
0.000159824754671
0.000156962632336
0.000153882010692
0.000150568781787
0.000147012699522
0.000143208922975
0.000139159500597
0.000134874776463
0.000130374628668
0.000125689136132
0.000120857882197
0.00011592717525
0.000110945454637
0.000105958528899
0.000101006525211
9.61233023195e-05
9.13373183789e-05
8.66727225354e-05
8.21503187932e-05
7.77882657061e-05
7.36024377881e-05
6.96064170535e-05
6.58111798119e-05
6.22245870088e-05
5.8850816374e-05
5.56899283335e-05
5.27377679921e-05
4.99863172625e-05
4.7424459923e-05
4.5038993283e-05
4.28156740331e-05
4.07401233536e-05
3.87984973956e-05
3.69779080981e-05
3.52666312105e-05
3.36541592321e-05
3.21311562804e-05
3.06893601956e-05
2.93214633139e-05
2.80209910531e-05
2.67821886775e-05
2.55999207156e-05
2.44695842021e-05
2.33870350511e-05
2.23485261399e-05
2.13506553921e-05
2.03903222442e-05
1.94646910169e-05
1.85711599581e-05
1.77073349075e-05
1.68710067412e-05
1.60601318954e-05
1.52728154097e-05
1.45072960254e-05
1.37619329656e-05
1.30351940808e-05
1.23256451007e-05
1.16319397683e-05
1.09528106623e-05
1.02870605346e-05
9.63355400152e-06
8.99120943229e-06
8.3589908689e-06
7.73589978846e-06
7.12096646123e-06
6.51324054657e-06
5.91178034569e-06
5.31563970192e-06
4.7238507095e-06
4.13539881714e-06
3.54918399037e-06
2.96395647349e-06
2.37820772275e-06
1.78998794224e-06
1.19662061656e-06
5.94313291617e-07
7.75239714172e-08
0.00022126734031
0.000223791465769
0.000224908252644
0.000224662052757
0.000223582927075
0.000222092882153
0.000220458189604
0.000218820920224
0.000217245205295
0.000215752825114
0.000214345081688
0.000213014682412
0.000211751636751
0.000210545913918
0.000209388468273
0.000208271496777
0.000207188368341
0.000206133437779
0.000205101840796
0.000204089309019
0.000203092017024
0.000202106461378
0.000201129367219
0.000200157616713
0.000199188194131
0.000198218142911
0.000197244534053
0.000196264435658
0.000195274884775
0.000194272866081
0.000193255290014
0.000192218970184
0.000191160599616
0.000190076725036
0.000188963718394
0.000187817744657
0.000186634724801
0.00018541029262
0.000184139743685
0.000182817974361
0.00018143940832
0.00017999790753
0.000178486664426
0.000176898072063
0.000175223570182
0.000173453468036
0.000171576750751
0.000169580886689
0.000167451669895
0.000165173154558
0.000162727763687
0.000160096672095
0.000157260557059
0.000154200760135
0.000150900808202
0.00014734813832
0.000143535838899
0.000139464318403
0.0001351429672
0.000130591837913
0.000125842899581
0.000120939686905
0.000115934027893
0.000110879971882
0.000105827402713
0.000100818346729
9.58869090707e-05
9.10610075554e-05
8.63640155343e-05
8.18160077785e-05
7.74346438781e-05
7.32356143222e-05
6.92325955612e-05
6.54368232868e-05
6.18564181721e-05
5.84956137444e-05
5.53541310861e-05
5.24269841999e-05
4.97048789211e-05
4.71751489097e-05
4.48229921349e-05
4.2632718579e-05
4.05887864785e-05
3.86765233555e-05
3.68825336304e-05
3.51948558873e-05
3.36029510995e-05
3.20975945073e-05
3.06707245507e-05
2.93152827328e-05
2.80250629923e-05
2.67945789023e-05
2.56189509273e-05
2.44938127843e-05
2.34152345742e-05
2.23796599695e-05
2.13838548718e-05
2.04248652801e-05
1.94999825006e-05
1.86067141823e-05
1.77427599851e-05
1.690599093e-05
1.60944316942e-05
1.53062452611e-05
1.45397194669e-05
1.37932550676e-05
1.30653550324e-05
1.23546148106e-05
1.16597133695e-05
1.09794048197e-05
1.0312510467e-05
9.6579111352e-06
9.01453960061e-06
8.38137295539e-06
7.75742467324e-06
7.14173605856e-06
6.53336659845e-06
5.93138244242e-06
5.33484171046e-06
4.74277440204e-06
4.15415306093e-06
3.56784763365e-06
2.98255371632e-06
2.39667775885e-06
1.80815810113e-06
1.21420414546e-06
6.10959119128e-07
8.84876464917e-08
0.000217596540686
0.000219979213818
0.000221252680391
0.000221369553345
0.000220711912917
0.000219616732457
0.000218319575026
0.000216961247796
0.000215615502233
0.000214315306388
0.000213071316566
0.000211883123092
0.000210745503168
0.000209651648988
0.000208594699728
0.000207568375606
0.000206567163081
0.00020558629261
0.000204621633452
0.000203669566589
0.000202726863382
0.00020179058055
0.000200857973798
0.000199926428696
0.000198993406074
0.000198056399208
0.000197112901337
0.000196160376452
0.000195196230666
0.000194217793261
0.000193222296249
0.000192206854094
0.000191168442559
0.000190103875815
0.000189009780909
0.000187882568593
0.000186718399288
0.000185513142726
0.000184262329316
0.000182961090832
0.000181604087235
0.000180185415749
0.000178698497481
0.000177135936452
0.000175489346212
0.000173749141473
0.000171904297665
0.0001699420927
0.000167847864471
0.000165604846832
0.000163194182502
0.000160595242897
0.000157786387828
0.000154746241901
0.000151455434455
0.000147898591407
0.00014406630597
0.000139956977402
0.00013557871659
0.000130951576177
0.000126109701679
0.000121101689348
0.000115986797644
0.000110826705162
0.00010567663656
0.000100580843003
9.55735499343e-05
9.0682026512e-05
8.5928862131e-05
8.13334412049e-05
7.69130257491e-05
7.26832982052e-05
6.86582451939e-05
6.48495834819e-05
6.12658892798e-05
5.79115649926e-05
5.47859556679e-05
5.18830243386e-05
4.91918231744e-05
4.66976721102e-05
4.43837026775e-05
4.22323694845e-05
4.02266461729e-05
3.83507972407e-05
3.65907566092e-05
3.49342138004e-05
3.33705193496e-05
3.18905005463e-05
3.04862488012e-05
2.91509139605e-05
2.78785221713e-05
2.66638226564e-05
2.55021625845e-05
2.43893866307e-05
2.33217569525e-05
2.22958895396e-05
2.13087033881e-05
2.03573796454e-05
1.94393284436e-05
1.85521616796e-05
1.76936703941e-05
1.68618057346e-05
1.60546627207e-05
1.527046622e-05
1.45075586737e-05
1.37643892131e-05
1.30395038843e-05
1.23315367481e-05
1.16392016666e-05
1.09612846063e-05
1.02966363087e-05
9.64416517496e-06
9.00283020276e-06
8.37163377659e-06
7.74961404931e-06
7.13583653459e-06
6.52938433149e-06
5.92934605843e-06
5.33480000174e-06
4.74479202678e-06
4.15830325328e-06
3.57420110471e-06
2.99116399217e-06
2.40756610302e-06
1.82130673415e-06
1.22957319229e-06
6.28542650943e-07
1.02066526208e-07
0.000214575180095
0.000216812120363
0.000218164300969
0.000218534877875
0.00021819951303
0.000217424041616
0.00021641116928
0.000215293705852
0.000214149106243
0.000213017695922
0.00021191740434
0.000210853733915
0.000209825857095
0.000208830090725
0.000207861754983
0.000206916095993
0.000205988691119
0.00020507558213
0.000204173274321
0.000203278676654
0.000202389022135
0.000201501787625
0.000200614621514
0.000199725282022
0.000198831586058
0.000197931368752
0.000197022450293
0.000196102606866
0.000195169542836
0.000194220871388
0.000193254094647
0.000192266584162
0.000191255560788
0.000190218073058
0.000189150973091
0.000188050888986
0.00018691419241
0.00018573695977
0.000184514924856
0.000183243420161
0.000181917303186
0.00018053086291
0.000179077700333
0.000177550575805
0.000175941215281
0.000174240068731
0.000172436018603
0.000170516047517
0.000168464896138
0.000166264778033
0.000163895267649
0.0001613335284
0.000158555068961
0.000155535157658
0.000152250849446
0.000148683332439
0.000144820173468
0.000140657283917
0.000136200998422
0.000131470949042
0.000126503564095
0.000121353788291
0.000116090888658
0.000110786973417
0.000105504192499
0.00010028917448
9.51759006061e-05
9.01908442924e-05
8.53558482258e-05
8.06896576789e-05
7.62092490366e-05
7.19305024587e-05
6.78679515695e-05
6.40340268848e-05
6.04379696676e-05
5.70844686675e-05
5.39724224669e-05
5.10944366454e-05
4.84374059051e-05
4.59840383057e-05
4.37148189979e-05
4.16098628921e-05
3.96502991214e-05
3.7819084862e-05
3.61013281039e-05
3.44842734089e-05
3.29571008008e-05
3.15106491723e-05
3.01371325369e-05
2.88298837705e-05
2.75831388085e-05
2.63918622585e-05
2.52516098771e-05
2.41584214968e-05
2.31087380627e-05
2.20993372415e-05
2.11272831395e-05
2.01898866353e-05
1.92846737012e-05
1.84093597287e-05
1.75618284075e-05
1.67401140694e-05
1.59423867021e-05