/*--------------------------------*- C++ -*----------------------------------*\
  =========                 |
  \\      /  F ield         | OpenFOAM: The Open Source CFD Toolbox
   \\    /   O peration     | Website:  https://openfoam.org
    \\  /    A nd           | Version:  7
     \\/     M anipulation  |
\*---------------------------------------------------------------------------*/
FoamFile
{
    version     2.0;
    format      ascii;
    class       volVectorField;
    location    "2400";
    object      U;
}
// * * * * * * * * * * * * * * * * * * * * * * * * * * * * * * * * * * * * * //

dimensions      [0 1 -1 0 0 0 0];

internalField   nonuniform List<vector> 
8192
(
(0.00104347539836 0.000156524601639 0)
(0.000759365294582 0.000127585505478 0)
(0.000549387310194 8.23924855063e-05 0)
(0.000414134157152 5.28606738762e-05 0)
(0.0003262994463 3.49740431273e-05 0)
(0.00026723490844 2.40905008959e-05 0)
(0.00022587888466 1.72655291285e-05 0)
(0.000195797221946 1.28161399561e-05 0)
(0.000173184745361 9.79634315229e-06 0)
(0.000155720921036 7.66748785747e-06 0)
(0.000141938655781 6.11478424103e-06 0)
(0.000130875594485 4.9482840481e-06 0)
(0.000121877930906 4.04938665798e-06 0)
(0.000114487071531 3.34147996737e-06 0)
(0.00010837215333 2.773445591e-06 0)
(0.000103288580374 2.31013481667e-06 0)
(9.90517453354e-05 1.92670775485e-06 0)
(9.55198759679e-05 1.60516921494e-06 0)
(9.25825263815e-05 1.33218803132e-06 0)
(9.01526591151e-05 1.09768694103e-06 0)
(8.81610723806e-05 8.93907535698e-07 0)
(8.65523970219e-05 7.14775591924e-07 0)
(8.52821683085e-05 5.55460910394e-07 0)
(8.43146493002e-05 4.12065901699e-07 0)
(8.36211900217e-05 2.81401195182e-07 0)
(8.31789754745e-05 1.60821188021e-07 0)
(8.29700604643e-05 4.81016867063e-08 0)
(8.29806190641e-05 -5.86523762635e-08 0)
(8.32003563552e-05 -1.61076930704e-07 0)
(8.36220436754e-05 -2.60602293589e-07 0)
(8.42411491167e-05 -3.58494887452e-07 0)
(8.50555414826e-05 -4.55888988105e-07 0)
(8.60652493791e-05 -5.5381010469e-07 0)
(8.72722599258e-05 -6.53191225543e-07 0)
(8.8680343334e-05 -7.54882435088e-07 0)
(9.02948901828e-05 -8.59653999884e-07 0)
(9.21227479385e-05 -9.68192523175e-07 0)
(9.41720421841e-05 -1.08108950403e-06 0)
(9.64519663088e-05 -1.19882123871e-06 0)
(9.89725211602e-05 -1.32171888276e-06 0)
(0.000101744183617 -1.4499273123e-06 0)
(0.000104777480579 -1.58335168092e-06 0)
(0.000108082443074 -1.7215909798e-06 0)
(0.000111667914931 -1.8638590479e-06 0)
(0.000115540693001 -2.00889510609e-06 0)
(0.000119704482691 -2.15486853906e-06 0)
(0.000124158665341 -2.29928595451e-06 0)
(0.000128896894144 -2.43891266199e-06 0)
(0.000133905563612 -2.56972474497e-06 0)
(0.000139162233251 -2.68691117853e-06 0)
(0.000144634125925 -2.78494642379e-06 0)
(0.000150276859911 -2.85775148891e-06 0)
(0.000156033602692 -2.89895463634e-06 0)
(0.000161834846149 -2.90225204214e-06 0)
(0.000167598989778 -2.8618551981e-06 0)
(0.000173233877966 -2.77299752865e-06 0)
(0.000178639368353 -2.63245890243e-06 0)
(0.000183710911907 -2.43905280043e-06 0)
(0.000188344000647 -2.1940068139e-06 0)
(0.000192439189205 -1.90115596446e-06 0)
(0.000195907238556 -1.56687155965e-06 0)
(0.00019867380765 -1.19968021121e-06 0)
(0.000200683095469 -8.09595252597e-07 0)
(0.000201899965585 -4.07267811023e-07 0)
(0.00020231036263 -3.12766645535e-09 0)
(0.000201920171295 3.93315075917e-07 0)
(0.000200752954123 7.73892840943e-07 0)
(0.000198847125484 1.13192152498e-06 0)
(0.000196253053089 1.46213202429e-06 0)
(0.000193030415475 1.76048270867e-06 0)
(0.000189245960632 2.02394583198e-06 0)
(0.000184971650664 2.25033506308e-06 0)
(0.000180283076168 2.43820826631e-06 0)
(0.000175257985996 2.58684932106e-06 0)
(0.000169974795109 2.69630822718e-06 0)
(0.000164510990121 2.76746329192e-06 0)
(0.000158941430195 2.80206361855e-06 0)
(0.000153336618514 2.80271600964e-06 0)
(0.000147761076132 2.77279572633e-06 0)
(0.000142271970167 2.71628135417e-06 0)
(0.000136918128601 2.63753336746e-06 0)
(0.00013173952231 2.54104830463e-06 0)
(0.00012676722885 2.43122287632e-06 0)
(0.000122023830036 2.31215603002e-06 0)
(0.000117524150736 2.18750570755e-06 0)
(0.000113276224822 2.06040489903e-06 0)
(0.000109282374783 1.93343195853e-06 0)
(0.000105540307426 1.80862417447e-06 0)
(0.00010204415228 1.68752151574e-06 0)
(9.87853948792e-05 1.57122798987e-06 0)
(9.57536799755e-05 1.4604803698e-06 0)
(9.29374774887e-05 1.35571671507e-06 0)
(9.03246164075e-05 1.25713990688e-06 0)
(8.79026992999e-05 1.16477349846e-06 0)
(8.56594137581e-05 1.07850893018e-06 0)
(8.35827580426e-05 9.98144113395e-07 0)
(8.16611974264e-05 9.23414145463e-07 0)
(7.98837660232e-05 8.54015110254e-07 0)
(7.82401267581e-05 7.89622132512e-07 0)
(7.67205999586e-05 7.29902705986e-07 0)
(7.53161689845e-05 6.74526320894e-07 0)
(7.40184695223e-05 6.23171177404e-07 0)
(7.28197676099e-05 5.75528735885e-07 0)
(7.17129302021e-05 5.31306631434e-07 0)
(7.06913910268e-05 4.90230463114e-07 0)
(6.97491136597e-05 4.52044791911e-07 0)
(6.88805530403e-05 4.16513696509e-07 0)
(6.80806161009e-05 3.8342110924e-07 0)
(6.73446216702e-05 3.52571201695e-07 0)
(6.66682593697e-05 3.23789010846e-07 0)
(6.60475467398e-05 2.96921578965e-07 0)
(6.54787833264e-05 2.7183985768e-07 0)
(6.49584998039e-05 2.48441763902e-07 0)
(6.4483399384e-05 2.26656841903e-07 0)
(6.40502875818e-05 2.06453240434e-07 0)
(6.36559847453e-05 1.87847975608e-07 0)
(6.32972132412e-05 1.7092200968e-07 0)
(6.29704473507e-05 1.55842463484e-07 0)
(6.2671707829e-05 1.42895740463e-07 0)
(6.23962731435e-05 1.32537724135e-07 0)
(6.21382628332e-05 1.25471460708e-07 0)
(6.18900205441e-05 1.22769801776e-07 0)
(6.1641178407e-05 1.26071419746e-07 0)
(6.13772167693e-05 1.37889441746e-07 0)
(6.10772726167e-05 1.62054122163e-07 0)
(6.07111463321e-05 2.0407182057e-07 0)
(6.02371016395e-05 2.69972791934e-07 0)
(5.96207570069e-05 3.46371950247e-07 0)
(0.00121018625629 0.000302862950458 0)
(0.0011603604585 0.000315183071544 0)
(0.00102702145836 0.000238111923275 0)
(0.000887624771846 0.000171791094197 0)
(0.000766985228686 0.000124517894917 0)
(0.000668578018266 9.20184155677e-05 0)
(0.000589703386507 6.95682884442e-05 0)
(0.000526540944176 5.3757504507e-05 0)
(0.000475659022958 4.23493956488e-05 0)
(0.000434326726975 3.3910575342e-05 0)
(0.00040046146136 2.75192477109e-05 0)
(0.000372494860375 2.25735033209e-05 0)
(0.000349244578338 1.86721337983e-05 0)
(0.000329812609672 1.55415819621e-05 0)
(0.000313509892607 1.29910002107e-05 0)
(0.000299801817879 1.08842494414e-05 0)
(0.000288269116808 9.12215097263e-06 0)
(0.000278579715453 7.63101858637e-06 0)
(0.00027046832637 6.35509929125e-06 0)
(0.000263721500392 5.25149094461e-06 0)
(0.000258166553748 4.28665895272e-06 0)
(0.000253663270586 3.43400473054e-06 0)
(0.000250097614493 2.67213857953e-06 0)
(0.000247376911029 1.9836326565e-06 0)
(0.000245426119961 1.35410668542e-06 0)
(0.000244184923978 7.71548083418e-07 0)
(0.000243605435695 2.2579993095e-07 0)
(0.000243650377188 -2.91828821866e-07 0)
(0.000244291622697 -7.88861260084e-07 0)
(0.000245509021272 -1.27188157983e-06 0)
(0.000247289435985 -1.74671305687e-06 0)
(0.000249625948704 -2.2185525797e-06 0)
(0.000252517187086 -2.69206858375e-06 0)
(0.000255966736194 -3.17146700402e-06 0)
(0.000259982600438 -3.66052735989e-06 0)
(0.000264576682592 -4.16260916914e-06 0)
(0.000269764246078 -4.68062726985e-06 0)
(0.000275563324626 -5.21699331348e-06 0)
(0.000281994040357 -5.77351961892e-06 0)
(0.000289077787618 -6.35128098956e-06 0)
(0.000296836236171 -6.95043011281e-06 0)
(0.000305290104685 -7.56996329577e-06 0)
(0.000314457655142 -8.20743587674e-06 0)
(0.000324352862736 -8.85863145763e-06 0)
(0.00033498322654 -9.51719651604e-06 0)
(0.000346347206335 -1.01742625923e-05 0)
(0.000358431303424 -1.08180917693e-05 0)
(0.00037120685001 -1.14337968184e-05 0)
(0.000384626632992 -1.20032025804e-05 0)
(0.000398621551169 -1.25049263501e-05 0)
(0.000413097582462 -1.29147569517e-05 0)
(0.000427933408394 -1.32064002042e-05 0)
(0.000442979090879 -1.33526293249e-05 0)
(0.000458056205655 -1.33268338826e-05 0)
(0.000472959794194 -1.31049054611e-05 0)
(0.000487462395838 -1.26673402538e-05 0)
(0.000501320264551 -1.2001383343e-05 0)
(0.00051428166458 -1.11029866799e-05 0)
(0.000526096882029 -9.97830234231e-06 0)
(0.000536529298026 -8.64439847943e-06 0)
(0.000545366580907 -7.12890673011e-06 0)
(0.000552430848075 -5.468440203e-06 0)
(0.000557586632175 -3.70588069034e-06 0)
(0.000560745747558 -1.88695673312e-06 0)
(0.000561868676965 -5.67696607019e-08 0)
(0.000560962734714 1.74307084407e-06 0)
(0.000558077794499 3.47626003458e-06 0)
(0.000553300613057 5.11251651617e-06 0)
(0.000546748697958 6.62746463541e-06 0)
(0.000538564393612 8.00202187596e-06 0)
(0.000528909531275 9.22164524065e-06 0)
(0.0005179606939 1.02756979115e-05 0)
(0.00050590494872 1.11570754925e-05 0)
(0.000492935814697 1.18621140965e-05 0)
(0.000479249248619 1.23907074746e-05 0)
(0.000465039527409 1.27464982506e-05 0)
(0.00045049504067 1.29369858163e-05 0)
(0.000435794146065 1.29734143815e-05 0)
(0.000421101341797 1.28703631679e-05 0)
(0.000406564046597 1.2645039954e-05 0)
(0.000392310240363 1.23163537556e-05 0)
(0.000378447122053 1.19038903671e-05 0)
(0.000365060816052 1.14269249303e-05 0)
(0.000352217037451 1.09035827884e-05 0)
(0.000339962536551 1.03502170666e-05 0)
(0.000328327095205 9.78102486709e-06 0)
(0.000317325841317 9.20788566608e-06 0)
(0.0003069616727 8.64038131764e-06 0)
(0.000297227624549 8.08594708273e-06 0)
(0.000288109063649 7.55010405307e-06 0)
(0.00027958563859 7.03673090392e-06 0)
(0.000271632953426 6.5483431803e-06 0)
(0.000264223960814 6.08635864649e-06 0)
(0.00025733008984 5.65133601283e-06 0)
(0.000250922135061 5.24318112489e-06 0)
(0.000244970938568 4.86131935179e-06 0)
(0.000239447897939 4.50483589464e-06 0)
(0.000234325331389 4.17258732004e-06 0)
(0.000229576728287 3.86328836138e-06 0)
(0.000225176909469 3.57557808943e-06 0)
(0.000221102117854 3.30806934937e-06 0)
(0.000217330056165 3.05938489785e-06 0)
(0.00021383988521 2.8281832338e-06 0)
(0.000210612193263 2.61317660246e-06 0)
(0.000207628944566 2.41314326613e-06 0)
(0.00020487341292 2.22693573644e-06 0)
(0.000202330104495 2.05348641511e-06 0)
(0.00019998467254 1.89181184464e-06 0)
(0.000197823825324 1.7410166711e-06 0)
(0.000195835227447 1.60029833297e-06 0)
(0.000194007393508 1.46895354644e-06 0)
(0.00019232957194 1.34638774638e-06 0)
(0.000190791615504 1.23212889883e-06 0)
(0.000189383833475 1.12584744528e-06 0)
(0.000188096818721 1.0273847261e-06 0)
(0.000186921240803 9.36793037637e-07 0)
(0.000185847593599 8.54391715422e-07 0)
(0.000184865883193 7.80845383769e-07 0)
(0.000183965239063 7.17273070351e-07 0)
(0.000183133430664 6.65400348854e-07 0)
(0.000182356276113 6.27770853199e-07 0)
(0.000181616950175 6.08036109427e-07 0)
(0.000180895261111 6.11334159811e-07 0)
(0.000180167135986 6.4471177049e-07 0)
(0.000179405004467 7.17306326993e-07 0)
(0.000178580900641 8.39049214559e-07 0)
(0.000177677487268 1.01245352074e-06 0)
(0.000176710657422 1.18706605433e-06 0)
(0.00122478250813 0.000267894192766 0)
(0.00124106809601 0.000383692058633 0)
(0.001196104027 0.000347906030245 0)
(0.00111322198855 0.000284275736083 0)
(0.00102004259428 0.000225852213912 0)
(0.000930270429922 0.000178863494955 0)
(0.000849340908868 0.000142527385829 0)
(0.000778653260299 0.000114648522447 0)
(0.000717843450541 9.31501336172e-05 0)
(0.000665889612246 7.63959970818e-05 0)
(0.000621616019767 6.31727099594e-05 0)
(0.00058390447365 5.25982144857e-05 0)
(0.000551769352063 4.40328529327e-05 0)
(0.000524372311846 3.70098986959e-05 0)
(0.00050101250228 3.11852373502e-05 0)
(0.000481108650075 2.63019666774e-05 0)
(0.000464180094637 2.21657178341e-05 0)
(0.000449829541173 1.86274342219e-05 0)
(0.000437728363597 1.55712780263e-05 0)
(0.000427604471005 1.29060584671e-05 0)
(0.000419232446751 1.05590899387e-05 0)
(0.000412425591327 8.47173981262e-06 0)
(0.000407029515693 6.5961625325e-06 0)
(0.000402916979445 4.89287551495e-06 0)
(0.000399983721937 3.32893927592e-06 0)
(0.000398145083544 1.87657651175e-06 0)
(0.000397333255493 5.12114279123e-07 0)
(0.000397495029683 -7.84832558391e-07 0)
(0.000398589944752 -2.03199185691e-06 0)
(0.000400588745105 -3.24492357544e-06 0)
(0.000403472085839 -4.43739988896e-06 0)
(0.000407229425527 -5.62169100075e-06 0)
(0.000411858055375 -6.80877038686e-06 0)
(0.000417362218312 -8.00844801208e-06 0)
(0.000423752273834 -9.22943520391e-06 0)
(0.000431043864605 -1.04793411454e-05 0)
(0.000439257039444 -1.1764597751e-05 0)
(0.000448415284547 -1.30903072313e-05 0)
(0.000458544411179 -1.44600047773e-05 0)
(0.000469671244196 -1.58753281201e-05 0)
(0.000481822052492 -1.73355864906e-05 0)
(0.000495020661157 -1.88372248008e-05 0)
(0.00050928618749 -2.03731853865e-05 0)
(0.000524630351471 -2.19321808618e-05 0)
(0.000541054328642 -2.34979082915e-05 0)
(0.000558545142966 -2.50482579355e-05 0)
(0.000577071641972 -2.65545984682e-05 0)
(0.000596580158769 -2.79812527729e-05 0)
(0.000616990044777 -2.92853088341e-05 0)
(0.000638189349596 -3.04169311063e-05 0)
(0.000660031020706 -3.13203384933e-05 0)
(0.000682330080839 -3.19355857815e-05 0)
(0.00070486229486 -3.22012199445e-05 0)
(0.000727364840575 -3.20577837185e-05 0)
(0.000749539432654 -3.14520182838e-05 0)
(0.000771058209509 -3.03414919855e-05 0)
(0.000791572482641 -2.86992656117e-05 0)
(0.0008107241762 -2.65180984401e-05 0)
(0.000828159460173 -2.38136029846e-05 0)
(0.000843543718325 -2.06256957299e-05 0)
(0.000856576631532 -1.70177441607e-05 0)
(0.000867005891265 -1.30730849071e-05 0)
(0.000874638027245 -8.88912929613e-06 0)
(0.000879345159373 -4.56994765327e-06 0)
(0.00088106715944 -2.1871915993e-07 0)
(0.000879809537882 4.06855477384e-06 0)
(0.000875638060352 8.20714713396e-06 0)
(0.000868671408474 1.212540027e-05 0)
(0.000859073092274 1.57647359358e-05 0)
(0.000847043474777 1.90785846234e-05 0)
(0.000832812362168 2.20309604869e-05 0)
(0.000816632254261 2.45952242899e-05 0)
(0.000798772109568 2.67533310755e-05 0)
(0.000779511372894 2.84956194089e-05 0)
(0.000759134030257 2.98210014177e-05 0)
(0.000737922567132 3.07372815503e-05 0)
(0.000716151870805 3.12612826423e-05 0)
(0.000694083286631 3.14184990313e-05 0)
(0.000671959161916 3.12421170254e-05 0)
(0.00064999825293 3.07714074957e-05 0)
(0.000628392319683 3.00496511605e-05 0)
(0.000607304107347 2.91218575867e-05 0)
(0.000586866751769 2.80325617848e-05 0)
(0.000567184491704 2.68239353763e-05 0)
(0.000548334454886 2.55343608307e-05 0)
(0.000530369223228 2.41975200178e-05 0)
(0.000513319872596 2.28419675363e-05 0)
(0.000497199212029 2.14911069523e-05 0)
(0.000482004999867 2.0163465106e-05 0)
(0.000467722974933 1.88731594234e-05 0)
(0.00045432959917 1.7630467351e-05 0)
(0.000441794457352 1.64424274065e-05 0)
(0.00043008229749 1.53134226093e-05 0)
(0.000419154722086 1.4245715566e-05 0)
(0.000408971557251 1.32399192267e-05 0)
(0.000399491935743 1.22953977635e-05 0)
(0.000390675133439 1.14105990499e-05 0)
(0.000382481198411 1.05833242286e-05 0)
(0.000374871409112 9.81094199418e-06 0)
(0.000367808594247 9.09055580579e-06 0)
(0.000361257342469 8.41913214443e-06 0)
(0.000355184125614 7.79359719541e-06 0)
(0.000349557354951 7.21090854604e-06 0)
(0.000344347386175 6.66810749471e-06 0)
(0.000339526485505 6.16235677686e-06 0)
(0.000335068766366 5.6909676834e-06 0)
(0.000330950103665 5.25141999141e-06 0)
(0.000327148030521 4.84137758157e-06 0)
(0.000323641620444 4.45870234635e-06 0)
(0.00032041135634 4.10146874869e-06 0)
(0.000317438986173 3.76798141102e-06 0)
(0.000314707363752 3.45679817792e-06 0)
(0.000312200271722 3.16676142703e-06 0)
(0.000309902222588 2.89704080535e-06 0)
(0.000307798232448 2.64719124715e-06 0)
(0.000305873561274 2.41723088026e-06 0)
(0.000304113413559 2.20774435849e-06 0)
(0.000302502594716 2.02001785877e-06 0)
(0.000301025123625 1.85621199055e-06 0)
(0.000299663813548 1.71957639419e-06 0)
(0.000298399858856 1.61470088584e-06 0)
(0.000297212516202 1.54777190611e-06 0)
(0.000296079069268 1.52673210386e-06 0)
(0.000294975457441 1.56104915985e-06 0)
(0.000293878288524 1.66026849038e-06 0)
(0.000292769499996 1.82897924192e-06 0)
(0.00029164469267 2.05074455504e-06 0)
(0.000290519387155 2.24091089823e-06 0)
(0.00122191270365 0.000221198987397 0)
(0.00125330864144 0.000382705757061 0)
(0.00125084137706 0.000396323689224 0)
(0.00121294229754 0.000356639218048 0)
(0.00115463706251 0.000304973383764 0)
(0.0010883342862 0.000255817288381 0)
(0.00102151323793 0.000213324184646 0)
(0.000958140143864 0.000177912489576 0)
(0.000900045002972 0.000148791140871 0)
(0.000847851731921 0.000124902123312 0)
(0.000801542793393 0.000105249139239 0)
(0.000760785276756 8.89908727765e-05 0)
(0.000725112720433 7.54478976291e-05 0)
(0.000694022937917 6.40817020147e-05 0)
(0.000667028116356 5.44680905889e-05 0)
(0.000643678362736 4.62727447839e-05 0)
(0.000623570831035 3.9231052413e-05 0)
(0.000606351284795 3.31322248539e-05 0)
(0.000591711914107 2.78070610548e-05 0)
(0.000579387498753 2.31186085998e-05 0)
(0.000569151034804 1.89550529667e-05 0)
(0.000560809397445 1.52242941924e-05 0)
(0.000554199312014 1.18497934352e-05 0)
(0.000549183742205 8.7673744109e-06 0)
(0.000545648718337 5.92274496469e-06 0)
(0.000543500585364 3.26956481512e-06 0)
(0.000542663630325 7.67931089493e-07 0)
(0.000543078041333 -1.61681314848e-06 0)
(0.000544698147166 -3.91501132184e-06 0)
(0.000547490890271 -6.15342721823e-06 0)
(0.000551434489313 -8.3558160491e-06 0)
(0.000556517246065 -1.05433515093e-05 0)
(0.000562736453249 -1.27349271042e-05 0)
(0.000570097360923 -1.4947341767e-05 0)
(0.000578612158037 -1.71953732422e-05 0)
(0.000588298923766 -1.94917376222e-05 0)
(0.000599180500223 -2.18469289413e-05 0)
(0.000611283234382 -2.42689294643e-05 0)
(0.000624635532835 -2.67627789711e-05 0)
(0.000639266169103 -2.93299910914e-05 0)
(0.000655202280416 -3.19678068975e-05 0)
(0.000672466990667 -3.46682823364e-05 0)
(0.000691076600449 -3.74172176726e-05 0)
(0.000711037296217 -4.0192956212e-05 0)
(0.000732341351672 -4.2965107266e-05 0)
(0.000754962828995 -4.5693285895e-05 0)
(0.000778852838743 -4.83260080997e-05 0)
(0.000803934487541 -5.0799931288e-05 0)
(0.000830097732148 -5.30396775802e-05 0)
(0.000857194462742 -5.49585091056e-05 0)
(0.000885034247357 -5.64601230452e-05 0)
(0.000913381265947 -5.74417832679e-05 0)
(0.000941953023538 -5.77988950606e-05 0)
(0.000970421432699 -5.74309634971e-05 0)
(0.00099841677692 -5.62486753737e-05 0)
(0.00102553490199 -5.41816396201e-05 0)
(0.00105134773989 -5.11861358852e-05 0)
(0.00107541696327 -4.72520580591e-05 0)
(0.00109731020818 -4.24080933676e-05 0)
(0.00111661889284 -3.67240795704e-05 0)
(0.00113297623073 -3.03095551644e-05 0)
(0.00114607368567 -2.33079464334e-05 0)
(0.00115567402838 -1.58867198278e-05 0)
(0.00116161951346 -8.2249640402e-06 0)
(0.00116383452356 -5.00719199624e-07 0)
(0.00116232307539 7.11960217093e-06 0)
(0.00115716244069 1.44881744842e-05 0)
(0.00114849448707 2.14789273303e-05 0)
(0.00113651616885 2.79877804252e-05 0)
(0.00112147014755 3.39311063686e-05 0)
(0.00110363603057 3.92435882823e-05 0)
(0.00108332231139 4.38763382925e-05 0)
(0.00106085883298 4.77957518725e-05 0)
(0.00103658948729 5.09831917925e-05 0)
(0.00101086489165 5.34352792388e-05 0)
(0.000984034916127 5.51643572052e-05 0)
(0.000956441129833 5.61986088907e-05 0)
(0.000928409433388 5.65813784006e-05 0)
(0.000900243290094 5.63694373559e-05 0)
(0.000872218014088 5.56302112072e-05 0)
(0.000844576506341 5.44382352379e-05 0)
(0.000817526672557 5.28712742745e-05 0)
(0.000791240559962 5.10065756354e-05 0)
(0.000765855065381 4.89176459126e-05 0)
(0.000741473932929 4.66717961726e-05 0)
(0.000718170691142 4.4328540955e-05 0)
(0.000695992171885 4.19388048223e-05 0)
(0.000674962290273 3.95448048949e-05 0)
(0.000655085826699 3.71804398692e-05 0)
(0.000636352021814 3.48720145818e-05 0)
(0.000618737861264 3.26391509944e-05 0)
(0.000602210982598 3.04957684284e-05 0)
(0.000586732179619 2.84510496839e-05 0)
(0.000572257509903 2.65103394018e-05 0)
(0.000558740030915 2.46759450837e-05 0)
(0.000546131201408 2.29478285034e-05 0)
(0.000534381989784 2.13241872505e-05 0)
(0.000523443731814 1.98019332621e-05 0)
(0.000513268778093 1.83770793053e-05 0)
(0.00050381096797 1.70450458262e-05 0)
(0.000495025962332 1.58009008823e-05 0)
(0.000486871463031 1.46395449801e-05 0)
(0.000479307342295 1.35558516123e-05 0)
(0.00047229570131 1.25447728087e-05 0)
(0.000465800873498 1.16014178364e-05 0)
(0.000459789384683 1.0721111852e-05 0)
(0.000454229879553 9.89944042685e-06 0)
(0.000449093021313 9.13228491772e-06 0)
(0.000444351369339 8.41585317178e-06 0)
(0.000439979237773 7.74670953102e-06 0)
(0.000435952536421 7.12180800162e-06 0)
(0.000432248593967 6.53853231455e-06 0)
(0.00042884596238 5.99474682379e-06 0)
(0.000425724200642 5.4888623149e-06 0)
(0.000422863635594 5.01992112121e-06 0)
(0.000420245098255 4.58770590351e-06 0)
(0.000417849635887 4.19287601043e-06 0)
(0.000415658204384 3.83713336452e-06 0)
(0.000413651353969 3.52341502924e-06 0)
(0.000411808936361 3.256098318e-06 0)
(0.000410109887869 3.04117968829e-06 0)
(0.000408532186639 2.88633485107e-06 0)
(0.000407053151299 2.80064972164e-06 0)
(0.000405650346036 2.79354748785e-06 0)
(0.000404303456903 2.87182773714e-06 0)
(0.000402997388112 3.03227745203e-06 0)
(0.000401725483401 3.24415888788e-06 0)
(0.000400485502972 3.41278307067e-06 0)
(0.00121690208379 0.000182384206249 0)
(0.00124894086177 0.000358085840781 0)
(0.00126530628537 0.000407045469753 0)
(0.00125519214888 0.000393930675903 0)
(0.00122438147579 0.000356797855883 0)
(0.00118119160765 0.000313485482581 0)
(0.00113217891003 0.000271489758454 0)
(0.00108172422191 0.0002335747204 0)
(0.00103251950342 0.000200428792214 0)
(0.000986099084114 0.000171878185427 0)
(0.00094324810989 0.000147433013242 0)
(0.000904285073338 0.000126527575537 0)
(0.000869248316123 0.000108620532134 0)
(0.000838015873794 9.32313161728e-05 0)
(0.000810380968156 7.99482274755e-05 0)
(0.0007860986622 6.84246912788e-05 0)
(0.000764914043314 5.83712801959e-05 0)
(0.000746578711182 4.954689894e-05 0)
(0.000730859942417 4.17505496351e-05 0)
(0.000717545327757 3.48141728706e-05 0)
(0.000706444657444 2.85966453149e-05 0)
(0.000697390175236 2.29788431842e-05 0)
(0.000690235902871 1.78596233176e-05 0)
(0.000684856470189 1.31525672943e-05 0)
(0.000681145716685 8.78334882046e-06 0)
(0.000679015222752 4.68760622561e-06 0)
(0.000678392860611 8.09224132299e-07 0)
(0.000679221411543 -2.90105200541e-06 0)
(0.000681457266307 -6.48671812047e-06 0)
(0.000685069212662 -9.98639611973e-06 0)
(0.000690037301536 -1.34345224404e-05 0)
(0.00069635177009 -1.68618588378e-05 0)
(0.000704011996569 -2.02958427352e-05 0)
(0.000713025457028 -2.37607842217e-05 0)
(0.000723406648846 -2.72779100326e-05 0)
(0.000735175941077 -3.08652490893e-05 0)
(0.000748358306546 -3.45373492327e-05 0)
(0.000762981885452 -3.8304811076e-05 0)
(0.000779076325129 -4.21736227415e-05 0)
(0.000796670836227 -4.61442797032e-05 0)
(0.000815791902619 -5.0210678086e-05 0)
(0.000836460582261 -5.43587795171e-05 0)
(0.00085868934071 -5.85650629009e-05 0)
(0.000882478370635 -6.27948059232e-05 0)
(0.000907811372466 -6.70002786118e-05 0)
(0.000934650807029 -7.11189843074e-05 0)
(0.000962932684373 -7.50721484825e-05 0)
(0.000992561027148 -7.87637279215e-05 0)
(0.00102340224265 -8.2080280344e-05 0)
(0.00105527975178 -8.48920795104e-05 0)
(0.0010879693453 -8.70558588938e-05 0)
(0.00112119584931 -8.8419493537e-05 0)
(0.00115463175604 -8.88287689103e-05 0)
(0.00118789848251 -8.81361424824e-05 0)
(0.00122057083593 -8.62111099128e-05 0)
(0.00125218508219 -8.29514924509e-05 0)
(0.00128225074825 -7.82947049052e-05 0)
(0.001310265961 -7.22278468241e-05 0)
(0.00133573574319 -6.47952591589e-05 0)
(0.00135819223759 -5.61020282696e-05 0)
(0.0013772153161 -4.63119683848e-05 0)
(0.00139245154915 -3.56391787086e-05 0)
(0.00140362930886 -2.43335609818e-05 0)
(0.00141056814931 -1.26624338917e-05 0)
(0.00141318163454 -8.9174487206e-07 0)
(0.00141147413936 1.0729556661e-05 0)
(0.00140553323737 2.1979728799e-05 0)
(0.00139551966752 3.26688567137e-05 0)
(0.00138165656286 4.26392240594e-05 0)
(0.00136421900816 5.17631807832e-05 0)
(0.00134352439189 5.99401831663e-05 0)
(0.00131992356351 6.70942231285e-05 0)
(0.00129379253407 7.3172305205e-05 0)
(0.00126552435806 7.8144090597e-05 0)
(0.0012355208852 8.20023812681e-05 0)
(0.00120418423779 8.47638139203e-05 0)
(0.00117190810397 8.64690129267e-05 0)
(0.00113906917861 8.71815426995e-05 0)
(0.00110601925929 8.69852888605e-05 0)
(0.00107307855673 8.59802986083e-05 0)
(0.00104053068979 8.42774902112e-05 0)
(0.00100861963774 8.19928801401e-05 0)
(0.000977548680754 7.92420213948e-05 0)
(0.0009474811413 7.61352228205e-05 0)
(0.000918542587327 7.27739003088e-05 0)
(0.000890824088407 6.92481774217e-05 0)
(0.000864386117017 6.56356633976e-05 0)
(0.000839262736948 6.20012160841e-05 0)
(0.000815465795061 5.83974451048e-05 0)
(0.000792988912179 5.48657101768e-05 0)
(0.000771811141551 5.14374010122e-05 0)
(0.000751900223002 4.8135330773e-05 0)
(0.000733215406085 4.49751225172e-05 0)
(0.000715709847232 4.19665100651e-05 0)
(0.000699332606342 3.91145084703e-05 0)
(0.000684030279997 3.64204340757e-05 0)
(0.000669748313886 3.38827712334e-05 0)
(0.000656432038092 3.14978934297e-05 0)
(0.000644027467173 2.92606526539e-05 0)
(0.000632481903588 2.71648535381e-05 0)
(0.000621744378802 2.52036294555e-05 0)
(0.00061176596195 2.3369737006e-05 0)
(0.000602499961444 2.16557839651e-05 0)
(0.000593902040819 2.0054404019e-05 0)
(0.000585930266254 1.85583899136e-05 0)
(0.000578545099884 1.71607949729e-05 0)
(0.000571709350025 1.58550115575e-05 0)
(0.000565388086897 1.46348338083e-05 0)
(0.000559548530207 1.34945111223e-05 0)
(0.000554159913105 1.24287980719e-05 0)
(0.000549193325463 1.14330060351e-05 0)
(0.000544621538173 1.05030614581e-05 0)
(0.000540418809307 9.6355754985e-06 0)
(0.000536560672501 8.82792955022e-06 0)
(0.000533023708106 8.07838074759e-06 0)
(0.000529785298713 7.38619051969e-06 0)
(0.000526823373029 6.75177707657e-06 0)
(0.000524116146535 6.17688806396e-06 0)
(0.000521641874778 5.66478042002e-06 0)
(0.000519378646983 5.2203764143e-06 0)
(0.000517304265411 4.85032992819e-06 0)
(0.000515396280733 4.56286903048e-06 0)
(0.000513632283301 4.36714715144e-06 0)
(0.000511990569556 4.27156835639e-06 0)
(0.000510451247611 4.28001779058e-06 0)
(0.000508997484361 4.38391977979e-06 0)
(0.000507615196129 4.54671010205e-06 0)
(0.000506286311491 4.67909751295e-06 0)
(0.00121280459264 0.0001526775361 0)
(0.00124153657369 0.000327021770048 0)
(0.00126534666224 0.00039793405141 0)
(0.00127131652332 0.000407186391624 0)
(0.00125971352745 0.000385955830544 0)
(0.0012351849824 0.000352045942539 0)
(0.00120257229491 0.000314554705258 0)
(0.00116571157746 0.000277825201117 0)
(0.0011273407669 0.000243753862802 0)
(0.00108930206761 0.000213012255944 0)
(0.0010527756482 0.000185676359081 0)
(0.00101847493643 0.000161548000865 0)
(0.000986793922464 0.000140317900917 0)
(0.000957913331071 0.000121647004045 0)
(0.000931875289636 0.000105205509548 0)
(0.000908635005616 9.06900219161e-05 0)
(0.000888096081328 7.78295152466e-05 0)
(0.000870134354883 6.63857446682e-05 0)
(0.000854613775717 5.61510736255e-05 0)
(0.000841396792995 4.69452675236e-05 0)
(0.000830350990041 3.86120445421e-05 0)
(0.00082135316853 3.10157675128e-05 0)
(0.000814291714038 2.40384447684e-05 0)
(0.000809067814754 1.75770956763e-05 0)
(0.000805595924427 1.15414809423e-05 0)
(0.000803803735157 5.85217264752e-06 0)
(0.000803631838502 4.38930389337e-07 0)
(0.000805033191457 -4.76064983295e-06 0)
(0.000807972460467 -9.80223340244e-06 0)
(0.000812425293303 -1.47356510689e-05 0)
(0.000818377542451 -1.96055982705e-05 0)
(0.000825824442748 -2.44521462873e-05 0)
(0.000834769739119 -2.93110741397e-05 0)
(0.000845224749508 -3.42140210693e-05 0)
(0.000857207339426 -3.91884534774e-05 0)
(0.000870740776919 -4.42574347411e-05 0)
(0.000885852429602 -4.94391814967e-05 0)
(0.000902572258677 -5.47463864351e-05 0)
(0.000920931058649 -6.01852859536e-05 0)
(0.000940958386046 -6.57544525116e-05 0)
(0.000962680116675 -7.14432976927e-05 0)
(0.000986115569831 -7.7230285196e-05 0)
(0.00101127414118 -8.30808758216e-05 0)
(0.00103815139617 -8.89452622597e-05 0)
(0.00106672459577 -9.47560029062e-05 0)
(0.00109694766064 -0.000100425732903 0)
(0.00112874563206 -0.000105845215906 0)
(0.00116200876354 -0.000110882095525 0)
(0.00119658647773 -0.000115380796628 0)
(0.00123228154758 -0.000119164089953 0)
(0.00126884499969 -0.000122036835685 0)
(0.00130597237052 -0.000123792327623 0)
(0.00134330204266 -0.00012422144486 0)
(0.00138041640918 -0.000123124486808 0)
(0.00141684653095 -0.000120325165309 0)
(0.00145208075401 -0.000115685829544 0)
(0.00148557746613 -0.00010912266943 0)
(0.0015167818266 -0.000100619381099 0)
(0.00154514591181 -9.02375221242e-05 0)
(0.00157015123736 -7.81215216384e-05 0)
(0.00159133199705 -6.44962584111e-05 0)
(0.00160829668384 -4.96557646505e-05 0)
(0.00162074535809 -3.39433777135e-05 0)
(0.00162848017733 -1.7726259235e-05 0)
(0.00163140810696 -1.3693307379e-06 0)
(0.00162953654686 1.47861879143e-05 0)
(0.00162296403328 3.04364907786e-05 0)
(0.00161186855696 4.53211076562e-05 0)
(0.00159649549316 5.92230993424e-05 0)
(0.00157714626979 7.19660343641e-05 0)
(0.00155416815358 8.34100079943e-05 0)
(0.00152794503029 9.344829309e-05 0)
(0.00149888877699 0.000102005460267 0)
(0.00146743074174 0.000109037090081 0)
(0.00143401293187 0.000114530610476 0)
(0.00139907872495 0.000118506389103 0)
(0.00136306320898 0.000121018042903 0)
(0.00132638355935 0.000122151049296 0)
(0.00128943008161 0.000122019147738 0)
(0.00125255861115 0.000120758588348 0)
(0.00121608484229 0.000118520819092 0)
(0.00118028090559 0.000115464529914 0)
(0.0011453742111 0.000111748019673 0)
(0.00111154831446 0.000107522663352 0)
(0.00107894539278 0.000102927943587 0)
(0.00104766985122 9.80881874452e-05 0)
(0.00101779259793 9.31108946963e-05 0)
(0.000989355594593 8.80863878056e-05 0)
(0.000962376380881 8.30884507438e-05 0)
(0.00093685236278 7.81756286328e-05 0)
(0.000912764734329 7.33929053699e-05 0)
(0.000890081964922 6.87735380818e-05 0)
(0.000868762830159 6.43408900169e-05 0)
(0.000848758995286 6.01101583786e-05 0)