/*--------------------------------*- C++ -*----------------------------------*\
  =========                 |
  \\      /  F ield         | OpenFOAM: The Open Source CFD Toolbox
   \\    /   O peration     | Website:  https://openfoam.org
    \\  /    A nd           | Version:  7
     \\/     M anipulation  |
\*---------------------------------------------------------------------------*/
FoamFile
{
    version     2.0;
    format      ascii;
    class       volScalarField;
    location    "1020";
    object      Ci;
}
// * * * * * * * * * * * * * * * * * * * * * * * * * * * * * * * * * * * * * //

dimensions      [0 -3 0 0 1 0 0];

internalField   nonuniform List<scalar> 
8192
(
10.0000000248
9.99999991431
9.9999997779
9.99999963617
9.99999949364
9.99999935386
9.99999922586
9.99999911062
9.99999900948
9.99999891978
9.99999884057
9.99999876747
9.99999869968
9.99999863309
9.99999856836
9.99999850231
9.9999984373
9.99999837101
9.99999830723
9.99999824411
9.99999818655
9.99999813335
9.99999809008
9.99999805329
9.99999802674
9.99999800565
9.99999799349
9.9999979846
9.99999798274
9.99999798108
9.99999798121
9.9999979735
9.99999795785
9.99999792264
9.99999786664
9.99999777694
9.99999765201
9.99999747875
9.99999725658
9.99999697368
9.99999663194
9.99999622235
9.99999575068
9.99999521187
9.9999946163
9.99999396316
9.99999326732
9.99999253158
9.99999177442
9.99999100124
9.99999023324
9.9999894777
9.9999887583
9.99998808413
9.99998748136
9.99998696038
9.9999865484
9.99998625428
9.99998610207
9.99998609402
9.99998624586
9.99998654917
9.99998700873
9.99998760456
9.99998833043
9.99998915611
9.9999900669
9.99999102748
9.99999202204
9.99999301868
9.99999400742
9.9999949641
9.99999588587
9.99999675586
9.99999757701
9.99999833843
9.99999904788
9.99999969987
10.0000003067
10.0000008676
10.0000013984
10.0000019015
10.0000023939
10.0000028787
10.0000033718
10.0000038747
10.0000044005
10.0000049478
10.0000055263
10.000006131
10.0000067683
10.0000074303
10.0000081203
10.0000088281
10.0000095553
10.0000102916
10.0000110421
10.000011797
10.0000125543
10.0000132998
10.0000140296
10.0000147296
10.0000153964
10.0000160168
10.0000165885
10.0000171
10.0000175503
10.0000179298
10.0000182388
10.0000184695
10.0000186237
10.0000186952
10.0000186869
10.0000185944
10.0000184211
10.0000181639
10.000017827
10.0000174077
10.0000169106
10.0000163335
10.0000156815
10.0000149545
10.0000141617
10.0000133109
10.0000124235
10.0000115308
10.0000106995
10.0000101085
9.99999998006
9.99999986025
9.99999975747
9.99999967158
9.99999959807
9.99999952809
9.99999946019
9.9999993943
9.99999933219
9.99999927312
9.99999921761
9.9999991633
9.99999911035
9.99999905619
9.99999900178
9.99999894507
9.99999888817
9.99999882963
9.99999877256
9.99999871583
9.99999866323
9.99999861523
9.99999857683
9.99999854371
9.99999851802
9.99999849576
9.99999847921
9.99999846359
9.99999845272
9.99999844085
9.99999842762
9.99999840425
9.99999836916
9.99999831186
9.99999822974
9.99999811119
9.99999795342
9.99999774497
9.99999748427
9.9999971617
9.9999967787
9.99999632925
9.99999581942
9.99999524796
9.99999462627
9.9999939579
9.9999932589
9.99999253634
9.99999180921
9.99999108614
9.99999038722
9.99998972108
9.99998910788
9.99998855555
9.99998808375
9.99998769904
9.99998741928
9.99998724751
9.9999871968
9.99998726359
9.9999874535
9.99998775506
9.99998816649
9.9999886698
9.99998925763
9.99998990779
9.99999061014
9.99999134216
9.99999209578
9.99999285299
9.99999361101
9.99999435735
9.99999509341
9.99999581008
9.99999651071
9.99999718797
9.99999784636
9.99999848025
9.99999909582
9.9999996897
10.0000002701
10.0000008358
10.0000013964
10.0000019521
10.0000025129
10.0000030788
10.0000036588
10.0000042519
10.0000048652
10.0000054957
10.0000061482
10.0000068176
10.0000075064
10.0000082075
10.0000089216
10.0000096404
10.0000103751
10.000011117
10.0000118599
10.0000125906
10.0000133042
10.0000139885
10.0000146394
10.0000152456
10.0000158038
10.0000163043
10.0000167449
10.0000171175
10.0000174214
10.00001765
10.000017804
10.0000178785
10.0000178753
10.0000177909
10.000017628
10.0000173843
10.000017063
10.0000166627
10.0000161867
10.0000156341
10.0000150089
10.0000143117
10.0000135499
10.0000127296
10.0000118636
10.0000109765
10.0000101006
10.0000094143
9.99999998124
9.99999988064
9.99999981806
9.99999978858
9.99999977813
9.99999978208
9.99999980064
9.99999982844
9.99999986355
9.99999990122
9.99999994053
9.99999997694
10.0000000106
10.0000000373
10.0000000585
10.0000000708
10.0000000769
10.0000000737
10.0000000652
10.0000000484
10.0000000279
10.0000000009
9.99999997279
9.99999993959
9.9999999055
9.99999986506
9.99999982192
9.99999976929
9.99999971078
9.99999963875
9.9999995559
9.9999994528
9.99999933151
9.99999918155
9.99999900508
9.99999879167
9.99999854458
9.99999825492
9.99999792834
9.99999755891
9.99999715586
9.99999671701
9.99999625558
9.99999577275
9.99999528483
9.99999479466
9.99999431955
9.99999386151
9.99999343646
9.9999930435
9.99999269569
9.99999238854
9.99999213258
9.99999192066
9.99999176214
9.99999164868
9.99999158941
9.99999157498
9.99999161356
9.99999169376
9.9999918215
9.99999198299
9.99999218223
9.99999240427
9.99999265234
9.99999291148
9.99999318522
9.99999346045
9.99999374347
9.99999402568
9.99999431754
9.99999461444
9.99999492871
9.99999525682
9.9999956103
9.99999598464
9.99999638939
9.9999968186
9.99999727998
9.99999776651
9.9999982846
9.99999882652
9.99999939772
9.99999999008
10.0000006084
10.0000012444
10.0000019025
10.0000025743
10.0000032638
10.0000039625
10.0000046739
10.0000053894
10.0000061118
10.0000068319
10.000007552
10.0000082621
10.0000089666
10.0000096583
10.0000103388
10.000010998
10.0000116353
10.0000122398
10.0000128105
10.0000133369
10.0000138182
10.0000142447
10.0000146166
10.0000149256
10.0000151725
10.0000153507
10.0000154621
10.0000155015
10.0000154717
10.0000153687
10.0000151965
10.0000149521
10.0000146399
10.0000142578
10.0000138105
10.0000132963
10.0000127203
10.0000120822
10.0000113896
10.000010648
10.0000098599
10.0000090488
10.0000081846
10.0000075915
9.99999998437
9.99999990565
9.99999986095
9.99999987146
9.99999991829
9.99999998397
10.0000000583
10.0000001478
10.0000002496
10.0000003592
10.0000004735
10.000000588
10.0000007003
10.0000008064
10.0000009049
10.0000009925
10.0000010688
10.0000011315
10.0000011811
10.0000012156
10.0000012365
10.0000012419
10.0000012337
10.0000012102
10.0000011731
10.00000112
10.0000010526
10.0000009673
10.0000008662
10.0000007452
10.0000006069
10.0000004465
10.0000002675
10.0000000652
9.99999984449
9.99999960152
9.9999993428
9.99999906687
9.99999878172
9.99999848893
9.99999819765
9.99999791191
9.99999764132
9.9999973905
9.99999716829
9.99999697757
9.99999682479
9.99999670935
9.99999663418
9.99999659477
9.99999659066
9.99999661446
9.99999666391
9.99999673074
9.99999681292
9.99999690311
9.9999970006
9.99999709918
9.9999971987
9.99999729279
9.99999738054
9.99999745479
9.99999751426
9.99999755214
9.99999756798
9.99999755613
9.9999975177
9.99999744953
9.99999735673
9.99999724134
9.99999711384
9.99999698048
9.9999968543
9.99999674251
9.99999665779
9.99999660619
9.99999659862
9.9999966391
9.99999673621
9.99999689153
9.99999711077
9.99999739255
9.99999773932
9.99999814657
9.99999861362
9.99999913328
9.99999970249
10.0000003123
10.0000009583
10.0000016309
10.0000023251
10.0000030312
10.0000037448
10.0000044565
10.0000051624
10.0000058538
10.0000065277
10.0000071776
10.0000078016
10.0000083936
10.0000089516
10.0000094695
10.0000099452
10.0000103729
10.0000107509
10.0000110742
10.0000113419
10.0000115498
10.0000116981
10.0000117837
10.0000118078
10.0000117685
10.0000116678
10.0000115049
10.0000112827
10.0000110012
10.0000106639
10.0000102716
10.0000098279
10.000009334
10.0000087933
10.0000082081
10.000007582
10.0000069253
10.0000062285
10.0000055478
10.0000047055
10.0000045121
9.99999999473
9.9999999355
9.99999991698
9.99999995376
10.0000000343
10.0000001386
10.0000002543
10.0000003701
10.0000004982
10.0000006349
10.0000007774
10.0000009215
10.0000010643
10.0000012018
10.0000013318
10.0000014509
10.0000015577
10.0000016494
10.0000017254
10.0000017834
10.0000018237
10.0000018441
10.000001846
10.0000018273
10.00000179
10.0000017318
10.000001656
10.0000015591
10.0000014467
10.0000013135
10.0000011682
10.0000010035
10.0000008321
10.0000006444
10.0000004569
10.0000002594
10.0000000698
9.99999988028
9.99999970699
9.99999954634
9.99999941019
9.99999929925
9.99999922034
9.99999917565
9.99999916827
9.99999919839
9.99999926657
9.99999936949
9.9999995056
9.99999966859
9.99999985526
10.0000000578
10.0000002724
10.0000004913
10.0000007114
10.000000926
10.0000011332
10.0000013272
10.0000015061
10.0000016634
10.0000017962
10.0000018966
10.0000019612
10.0000019824
10.0000019576
10.0000018806
10.0000017504
10.0000015635
10.0000013236
10.0000010334
10.0000007032
10.0000003408
9.99999995964
9.99999956948
9.99999918415
9.99999881334
9.99999847023
9.99999816372
9.99999790579
9.99999770375
9.99999756725
9.9999975007
9.99999751011
9.9999975959
9.99999775977
9.99999799791
9.99999830791
9.9999986824
9.99999911582
9.99999959842
10.0000001228
10.000000678
10.0000012562
10.0000018463
10.0000024407
10.0000030293
10.0000036054
10.0000041605
10.0000046894
10.0000051854
10.0000056446
10.0000060617
10.0000064339
10.000006757
10.0000070293
10.0000072476
10.0000074115
10.0000075189
10.0000075707
10.0000075658
10.0000075059
10.0000073914
10.0000072247
10.000007007
10.0000067415
10.0000064301
10.0000060765
10.0000056831
10.0000052538
10.0000047912
10.0000042985
10.0000037796
10.0000032341
10.0000026792
10.0000020823
10.0000015678
10.0000007689
10.0000009115
9.99999999381
9.99999994483
9.99999993042
9.99999998856
10.0000001007
10.0000002398
10.0000003882
10.0000005353
10.0000006757
10.0000008191
10.000000965
10.0000011102
10.0000012524
10.000001388
10.000001515
10.0000016303
10.0000017327
10.0000018195
10.0000018901
10.0000019425
10.0000019771
10.0000019917
10.0000019883
10.0000019642
10.0000019237
10.0000018621
10.0000017881
10.0000016927
10.0000015914
10.0000014679
10.0000013486
10.0000012059
10.0000010803
10.0000009308
10.0000008122
10.0000006727
10.0000005745
10.0000004649
10.0000004004
10.0000003405
10.0000003227
10.0000003273
10.0000003686
10.0000004444
10.0000005535
10.0000006995
10.0000008767
10.0000010859
10.0000013223
10.0000015823
10.0000018618
10.0000021549
10.0000024572
10.0000027625
10.0000030665
10.0000033638
10.0000036509
10.000003923
10.0000041768
10.0000044067
10.0000046075
10.0000047725
10.0000048955
10.0000049699
10.0000049906
10.0000049513
10.0000048476
10.000004675
10.000004434
10.000004127
10.0000037618
10.0000033464
10.0000028919
10.0000024079
10.0000019061
10.0000013963
10.0000008906
10.0000003987
9.999999933
9.99999950312
9.99999912039
9.99999879282
9.9999985291
9.99999833398
9.99999821222
9.99999816438
9.99999819084
9.99999828795
9.99999845212
9.99999867628
9.99999895387
9.99999927558
9.99999963315
10.0000000163
10.0000004162
10.0000008228
10.0000012279
10.0000016222
10.000001999
10.0000023506
10.000002672
10.0000029574
10.0000032034
10.0000034059
10.0000035631
10.0000036726
10.0000037341
10.0000037465
10.000003711
10.0000036278
10.000003499
10.0000033261
10.0000031119
10.0000028587
10.0000025701
10.000002249
10.0000018992
10.0000015239
10.0000011271
10.000000712
10.0000002815
9.99999984105
9.99999938554
9.99999894176
9.99999844923
9.99999809082
9.99999739209
9.99999767123
10.0000000007
9.9999999605
9.99999996039
10.0000000289
10.0000001572
10.0000003175
10.0000004873
10.0000006533
10.0000008093
10.0000009525
10.0000010928
10.0000012287
10.0000013586
10.0000014799
10.000001591
10.0000016894
10.0000017741
10.0000018431
10.0000018963
10.0000019318
10.0000019513
10.0000019518
10.000001938
10.0000019041
10.0000018609
10.0000017949
10.0000017293
10.0000016352
10.0000015578
10.0000014406
10.0000013653
10.0000012316
10.0000011737
10.0000010338
10.0000010065
10.0000008771
10.0000008873
10.0000007929
10.0000008398
10.0000008081
10.0000008889
10.0000009402
10.0000010588
10.0000011959
10.0000013653
10.0000015766
10.000001808
10.0000020795
10.0000023717
10.0000026921
10.0000030312
10.0000033864
10.0000037516
10.0000041213
10.0000044897
10.0000048517
10.0000052023
10.0000055372
10.0000058519
10.0000061415
10.0000064
10.0000066206
10.0000067964
10.0000069212
10.0000069892
10.0000069941
10.0000069299
10.0000067918
10.0000065793
10.0000062953
10.0000059471
10.0000055432
10.0000050936
10.0000046073
10.0000040935
10.000003561
10.0000030188
10.0000024757
10.0000019413
10.0000014249
10.000000936
10.0000004835
10.0000000755
9.99999971892
9.99999941927
9.99999918017
9.99999900358
9.99999888941
9.99999883589
9.9999988395
9.99999889532
9.99999899709
9.99999913768
9.99999930918
9.99999950334
9.99999971173
9.99999992606
10.0000001384
10.0000003413
10.000000528
10.0000006927
10.0000008304
10.0000009369
10.000001009
10.0000010445
10.0000010417
10.0000010001
10.0000009198
10.0000008015
10.0000006465
10.0000004569
10.0000002349
9.99999998332
9.99999970521
9.9999994039
9.99999908278
9.9999987455
9.99999839555
9.99999803641
9.99999767179
9.9999973033
9.99999693794
9.99999656659
9.9999962217
9.99999583106
9.99999558544
9.9999950369
9.99999529471
9.99999999519
9.99999995772
9.99999995222
10.0000000294
10.0000001759
10.0000003594
10.0000005526
10.0000007383
10.000000909
10.0000010607
10.0000011971
10.000001324
10.0000014412
10.0000015474
10.0000016417
10.0000017223
10.000001789
10.0000018398
10.0000018762
10.0000018949
10.0000019012
10.0000018877
10.0000018673
10.0000018228
10.0000017827
10.0000017085
10.0000016607
10.000001557
10.0000015191
10.000001383
10.0000013787
10.0000012052
10.0000012611
10.0000010473
10.0000011847
10.0000009408
10.0000011613
10.0000009231
10.0000011981
10.0000010287
10.0000013082
10.0000012734
10.0000015208
10.0000016471
10.0000018739
10.0000021308
10.0000023878
10.0000027236
10.0000030499
10.0000034332
10.0000038249
10.0000042428
10.0000046708
10.0000051052
10.0000055378
10.000005963
10.0000063742
10.0000067673
10.0000071379
10.0000074812
10.0000077908
10.0000080594
10.0000082796
10.0000084447
10.0000085489
10.0000085851
10.0000085465
10.0000084266
10.0000082256
10.0000079467
10.0000076014
10.0000071974
10.0000067506
10.0000062626
10.0000057443
10.0000052052
10.0000046547
10.0000041009
10.0000035527
10.0000030175
10.0000025034
10.0000020166
10.000001564
10.0000011499
10.0000007796
10.0000004546
10.000000176
9.99999994498
9.99999976176
9.99999962443
9.9999995304
9.99999947518
9.99999945396
9.99999946047
9.99999948854
9.99999953109
9.99999958158
9.99999963302
9.99999967941
9.99999971468
9.99999973403
9.99999973283
9.99999970787
9.99999965621
9.99999957635
9.99999946701
9.99999932828
9.99999916039
9.99999896476
9.99999874286
9.99999849714
9.99999822992
9.99999794441
9.99999764343
9.99999733062
9.99999700897
9.9999966823
9.99999635346
9.99999602607
9.99999570293
9.99999538583
9.99999508044
9.99999477857
9.99999450765
9.99999420744
9.99999402753
9.99999363718
9.99999381253
10.000000001
9.99999997205
9.99999997786
10.0000000556
10.0000002057
10.0000003994
10.0000006068
10.0000008067
10.0000009886
10.0000011483
10.0000012844
10.0000014051
10.0000015122
10.0000016056
10.0000016857
10.000001751
10.0000018028
10.0000018382
10.0000018615
10.0000018662
10.0000018637
10.000001838
10.0000018162
10.0000017599
10.0000017306
10.0000016407
10.0000016236
10.0000014902
10.0000015171
10.0000013183
10.0000014368
10.0000011361
10.0000014085
10.0000009609
10.0000014501
10.0000008257
10.0000015586
10.0000007879
10.0000017063
10.0000009221
10.0000018611
10.0000012801
10.0000020344
10.000001842
10.0000023158
10.000002524
10.0000028245
10.0000032721
10.0000035915
10.0000041047
10.000004534
10.0000050518
10.0000055534
10.0000060717
10.0000065822
10.0000070831
10.0000075621
10.0000080223
10.0000084577
10.0000088628
10.0000092299
10.0000095506
10.0000098158
10.0000100171
10.000010148
10.0000101989
10.0000101624
10.0000100295
10.0000098053
10.0000094907
10.0000091086
10.0000086604
10.0000081616
10.0000076262
10.0000070665
10.0000064935
10.0000059163
10.0000053432
10.0000047815
10.0000042378
10.0000037177
10.0000032261
10.0000027665
10.0000023421
10.0000019547
10.0000016057
10.0000012952
10.0000010225
10.0000007873
10.0000005856
10.0000004151
10.0000002733
10.000000156
10.0000000591
9.9999999772
9.99999990535
9.99999983783
9.99999976971
9.99999969573
9.99999961169
9.99999951337
9.99999939783
9.99999926228
9.99999910525
9.99999892552
9.99999872309
9.99999849819
9.99999825214
9.99999798639
9.99999770326
9.9999974051
9.99999709489
9.99999677556
9.99999645034
9.99999612251
9.99999579515
9.99999547175
9.99999515478
9.99999484778
9.99999455247
9.99999427146
9.99999400738
9.99999375667
9.9999935347
9.99999330613
9.99999316132
9.99999290092
9.9999930002
9.99999999409
9.99999996879
9.99999996976
10.0000000516
10.0000002113
10.000000419
10.0000006431
10.0000008597
10.0000010554
10.000001225
10.0000013667
10.0000014857
10.0000015873
10.000001672
10.0000017419
10.0000017952
10.0000018359
10.0000018588
10.0000018731
10.0000018659
10.0000018589
10.0000018216
10.0000018034
10.0000017331
10.0000017212
10.0000016075
10.000001633
10.0000014498
10.0000015672
10.0000012598
10.0000015611
10.0000010317
10.0000016584
10.0000007604
10.0000018956
10.000000462
10.0000022727
10.00000021
10.0000027137
10.0000001626
10.0000030643
10.0000005214
10.0000031927
10.000001387
10.0000031812
10.0000025986
10.0000033654
10.0000038169
10.0000040512
10.0000048803
10.0000051777
10.0000059314
10.0000064481
10.000007093
10.000007691
10.0000082881
10.0000088628
10.0000094116
10.0000099269
10.000010409
10.0000108504
10.000011243
10.0000115712
10.0000118206
10.0000119775
10.0000120349
10.0000119823
10.0000118213
10.0000115489
10.0000111852
10.0000107307
10.000010203
10.0000096204
10.0000090012
10.0000083615
10.000007715
10.0000070729
10.0000064446
10.0000058382
10.0000052599
10.0000047145
10.0000042052
10.0000037341
10.0000033017
10.000002908
10.0000025518
10.0000022318
10.0000019452
10.0000016902
10.0000014632
10.0000012617
10.000001081
10.0000009163
10.0000007636
10.0000006188
10.0000004775
10.0000003352
10.0000001877
10.0000000312
9.99999986226
9.99999967811
9.99999947658
9.99999925624
9.99999901634
9.99999875689
9.99999847847
9.9999981824
9.9999978704
9.99999754483
9.99999720821
9.9999968636
9.99999651396
9.99999616277
9.99999581295
9.99999546822
9.999995131
9.99999480528
9.99999449233
9.99999419663
9.99999391765
9.99999366039
9.99999342248
9.99999320768
9.99999301653
9.99999284009
9.99999271528
9.99999254619
9.99999259794
10.0000000005
9.99999998558
10
10.0000000806
10.000000238
10.0000004486
10.0000006811
10.000000909
10.0000011162
10.0000012951
10.0000014433
10.000001564
10.0000016636
10.0000017428
10.0000018057
10.00000185
10.0000018824
10.0000018952
10.0000019025
10.0000018855
10.0000018756
10.0000018286
10.0000018141
10.000001732
10.0000017351
10.0000016012
10.0000016627
10.0000014357
10.000001633
10.0000012228
10.0000017001
10.0000009304
10.0000019427
10.0000005042
10.0000024573
9.99999988856
10.0000033172
9.99999909469
10.0000044713
9.99999832566
10.0000056179
9.99999807608
10.0000062218
9.99999896006
10.0000058908
10.0000011313
10.000004987
10.0000038153
10.0000046288
10.0000058875
10.0000055492
10.0000071501
10.00000724
10.0000083025
10.0000088937
10.0000096535
10.0000103487
10.0000110248
10.0000116516
10.0000122383
10.0000128044
10.0000133197
10.0000137084
10.0000138949
10.0000138716
10.0000136885
10.0000134268
10.0000131308
10.0000128256
10.0000124817
10.0000120686
10.0000115711
10.0000109903
10.0000103412
10.0000096458
10.0000089272
10.0000082062
10.0000074998
10.0000068212
10.0000061801
10.0000055821
10.0000050305
10.0000045258
10.0000040674
10.0000036534
10.0000032815
10.0000029485
10.000002651
10.0000023851
10.0000021463
10.0000019306
10.0000017328
10.000001549
10.0000013733
10.0000011992
10.0000010226
10.0000008391
10.0000006453
10.0000004378
10.000000214
9.999999972
9.99999971059
9.99999942919
9.9999991282
9.99999880841
9.99999847152
9.99999811953
9.9999977551
9.99999738113
9.99999700085
9.99999661771
9.99999623506
9.99999585662
9.99999548536
9.99999512521
9.99999477816
9.99999444859
9.99999413663
9.99999384784
9.99999357919
9.99999333861
9.99999311814
9.99999292949
9.99999275887
9.99999262054
9.99999250956
9.99999240252
9.99999242895
9.9999999941
9.99999998277
9.99999999596
10.0000000812
10.0000002448
10.0000004641
10.0000007084
10.0000009503
10.0000011716
10.0000013627
10.0000015203
10.0000016467
10.0000017484
10.000001826
10.0000018853
10.0000019235
10.0000019497
10.0000019549
10.0000019561
10.0000019322
10.0000019177
10.000001866
10.0000018488
10.0000017656
10.000001767
10.0000016372
10.0000016966
10.0000014799
10.0000016747
10.0000012755
10.0000017651
10.0000009721
10.0000020799
10.000000458
10.0000028049
9.9999995436
10.000004198
9.99999800381
10.0000064786
9.99999578957
10.0000095118
9.99999346066
10.0000123675
9.99999250188
10.0000133269
9.999994714
10.0000112105
10.000000225
10.0000074457
10.0000061725
10.00000561
10.0000093522
10.0000071836
10.0000102707
10.0000098834
10.0000113094
10.0000120176
10.0000128375
10.0000135725
10.0000144375
10.000015351
10.0000158242
10.0000151707
10.0000131081
10.0000101045
10.0000071398
10.0000051215
10.0000044629
10.0000050353
10.0000063397
10.0000078235
10.0000090694
10.000009866
10.0000101802
10.0000100874
10.0000097014
10.0000091326
10.0000084691
10.0000077752
10.0000070942
10.0000064539
10.0000058695
10.0000053464
10.000004882
10.0000044696
10.0000040995
10.0000037634
10.0000034538
10.0000031664
10.0000028972
10.0000026448
10.0000024057
10.0000021789
10.000001959
10.0000017457
10.0000015289
10.0000013042
10.0000010673
10.000000815
10.0000005445
10.0000002542
9.99999994343
9.99999961229
9.99999926176
9.99999889365
9.9999985102
9.99999811437
9.99999770925
9.9999972985
9.99999688555
9.99999647443
9.9999960684
9.99999567165
9.99999528669
9.99999491801
9.99999456657
9.9999942377
9.99999392966
9.99999364991
9.99999339193
9.99999316779
9.99999296261
9.9999927975
9.9999926435
9.99999253718
9.99999243737
9.99999237757
9.9999923893
10.0000000018
9.99999999988
10.0000000311
10.0000001165
10.0000002757
10.0000004935
10.0000007418
10.0000009923
10.0000012247
10.0000014271
10.0000015944
10.0000017286
10.0000018348
10.0000019136
10.0000019713
10.0000020059
10.0000020267
10.0000020268
10.0000020209
10.0000019936
10.0000019705
10.0000019209
10.0000018908
10.0000018216
10.0000017976
10.0000017067
10.0000017092
10.0000015833
10.0000016514
10.0000014473
10.0000016706
10.0000012635
10.0000018651
10.0000009196
10.0000024504
10.0000001397
10.0000038642
9.99999837929
10.0000068341
9.99999487641
10.0000121547
9.99998918862
10.000019739
9.99998256604
10.000027011
9.99997926586
10.0000286557
9.99998471284
10.0000210991
9.99999872085
10.0000095122
10.0000116704
10.000004892
10.0000153184
10.0000087975
10.0000145978
10.0000133876
10.0000147701
10.0000161456
10.0000185901
10.0000187367
10.0000112731
9.99999212764
9.99996270247
9.99993033941
9.99990451185
9.99989188461
9.99989403124
9.99990797788
9.99992848173
9.99995029546
9.99996964282
9.99998467392
9.99999513636
10.0000017178
10.0000054338
10.00000724
10.0000078672
10.0000078059
10.0000073583
10.0000067074
10.000005972
10.0000052383
10.0000045707
10.0000040111
10.0000035771
10.0000032631
10.0000030465
10.0000028964
10.0000027805
10.0000026723
10.000002552
10.0000024088
10.0000022379
10.0000020391
10.0000018161
10.0000015692
10.0000012981
10.0000010048
10.000000691
10.0000003579
10.0000000066
9.99999963808
9.99999925381
9.99999885549
9.99999844536
9.99999802613
9.99999760082
9.99999717298
9.99999674599
9.99999632393
9.99999590995
9.99999550852
9.99999512172
9.99999475465
9.99999440723
9.99999408611
9.99999378729
9.999993521
9.99999327625
9.99999307088
9.99999288106
9.99999274012
9.99999260074
9.99999252541
9.99999243408
9.99999241685
9.99999241457
9.99999999616
9.99999999746
10.0000000294
10.0000001223
10.000000287
10.0000005102
10.0000007664
10.0000010278
10.0000012734
10.0000014893
10.000001669
10.0000018143
10.000001928
10.000002011
10.0000020691
10.0000021027
10.000002119
10.0000021161
10.0000021026
10.0000020741
10.0000020403
10.000001996
10.0000019486
10.0000018991
10.000001841
10.0000018008
10.0000017273
10.000001721
10.0000016135
10.0000016843
10.0000015033
10.0000017155
10.0000014115
10.0000018108
10.0000014218
10.0000018355
10.000001855
10.0000012731
10.0000036292
9.99999879317
10.0000087214
9.99999197367
10.0000199496
9.99997847816
10.0000383319
9.99996039146
10.0000574067
9.99994959776
10.0000610443
9.99996293725
10.0000380111
9.9999989352
10.000006509
10.0000255529
9.99999962011
10.0000257996
10.0000086937
10.0000198774
10.0000257404
10.000025617
9.9999808258
9.99985750516
9.9996467202
9.99938373049
9.9991357601
9.99896835719
9.99891632194
9.99897665326
9.99911896491
9.99930218234
9.99948830915
9.99965103179
9.999777992
9.99986820788
9.99992741413
9.99996371312
9.99998474533
9.99999643683
10.0000028138
10.0000063121
10.0000082322
10.0000091695
10.0000093624
10.0000089261
10.0000079803
10.0000066853
10.0000052276
10.0000037841
10.0000024937
10.0000014406
10.0000006565
10.0000001296
9.99999982061
9.99999967651
9.99999964251
9.9999996685
9.99999971493
9.9999997493
9.9999997455
9.99999969048
9.99999957831
9.99999940799
9.99999918241
9.99999890656
9.99999858726
9.99999823174
9.99999784805
9.99999744357
9.99999702628
9.99999660258
9.99999617996
9.99999576307
9.99999535907
9.99999497002
9.99999460364
9.99999425806
9.99999394336
9.99999365134
9.99999339793
9.99999316397
9.99999297779
9.99999280036
9.99999268478
9.99999255567
9.99999251256
9.99999242304
9.99999244844
9.99999242382
10.0000000037
10.0000000167
10.0000000631
10.000000162
10.0000003224
10.0000005416
10.0000007979
10.0000010645
10.0000013198
10.0000015467
10.0000017402
10.0000018974
10.0000020197
10.0000021085
10.0000021684
10.0000022021
10.0000022148
10.0000022093
10.0000021891
10.0000021586
10.0000021162
10.0000020734
10.0000020151
10.0000019742
10.0000018992
10.0000018813
10.0000017752
10.0000018212
10.0000016382
10.0000018368
10.0000014594
10.0000020064
10.0000011645
10.0000024698
10.0000006122
10.0000034315
9.99999963947
10.0000050246
9.99999839504
10.000006698
9.99999838195
10.0000056909
10.000004415
9.99999506565
10.0000256165
9.9999652984
10.0000690352
9.9999171823
10.0001203303
9.99988312336
10.0001304393
9.99991780152
10.0000613781
10.0000136312
9.99998456825
10.0000558139
9.99997926506
10.0000714048
10.0000412621
9.99985432535
9.99923455637
9.99807224195
9.99644758914
9.99468937457
9.99323081933
9.99240855214
9.99234227842
9.99294148411
9.99399322025
9.99524975607
9.99649245466
9.99757171721
9.99841732227
9.99902445815
9.99942832935
9.99967937334
9.99982609823
9.99990700845
9.99994925851
9.99997055387
9.99998173275
9.99998891755
9.99999509077
10.0000012651
10.0000073752
10.0000129293
10.0000174229
10.0000205442
10.0000222234
10.0000225906
10.0000218983
10.0000204451
10.0000185179
10.0000163587
10.00001415
10.0000120177
10.0000100348
10.0000082404
10.0000066385
10.0000052157
10.0000039534
10.0000028298
10.0000018227
10.0000009118
10.0000000803
9.99999931399
9.99999860297
9.999997939
9.9999973179
9.99999673506
9.9999961907
9.9999956812
9.99999521049
9.99999477306
9.99999437729
9.99999401233
9.9999936937
9.99999340009
9.99999316006
9.99999293315
9.99999277201
9.99999260179
9.9999925193
9.99999238885
9.99999238531
9.99999227534
9.99999234811
9.99999226451
9.99999999793
10.000000016
10.0000000615
10.0000001688
10.0000003404
10.0000005634
10.0000008233
10.000001097
10.0000013615
10.0000016028
10.0000018113
10.0000019819
10.0000021144
10.0000022103
10.0000022736
10.0000023083
10.0000023192
10.000002311
10.0000022865
10.0000022519
10.0000022055
10.0000021581
10.0000020992
10.0000020515
10.0000019842
10.0000019509
10.0000018714
10.0000018777
10.000001763
10.0000018655
10.0000016402
10.0000019845
10.0000014282
10.0000023994
10.0000009084
10.0000034967
9.99999955126
10.0000060948
9.99999634003
10.0000115052
9.99999008734
10.000020476
9.99998182027
10.0000288608
9.99998142404
10.0000191422
10.0000155282
9.99995817793
10.0001161075
9.99983099938
10.0002591405
9.99972373694
10.0002862334
9.99983803162
10.0000582491
10.0000688021
9.99997845085
10.0002742533
9.99936315286
9.99704383556
9.99194911079
9.98424980391
9.97490274303
9.96590327906
9.95929921242
9.95635312041
9.95722438377
9.96118948548
9.96714732224
9.97394291495
9.98057841105
9.98636172864
9.99095285279
9.99431258381
9.99659951788
9.99806024603
9.99894363289
9.99945290808
9.99973234623
9.9998752129
9.99993896085
9.9999587943
9.99995663765
9.99994611729
9.99993522873
9.99992798646
9.99992569704
9.99992802106
9.99993381428
9.99994171469
9.9999504916
9.9999592033
9.99996722877
9.9999742276
9.99998007368
9.99998478293
9.99998845857
9.99999123811
9.99999328045
9.99999471699
9.9999956742
9.99999625976
9.99999656259
9.99999665315
9.99999658813
9.99999641016
9.99999615466
9.99999584579
9.999995507
9.99999514981
9.99999479258
9.99999443635
9.99999410025
9.99999377337
9.99999348228
9.99999319882
9.99999296651
9.99999272927
9.99999256295
9.99999236449
9.99999226745
9.99999208941
9.99999206343
9.99999187509
9.99999192272
9.99999168443
9.99999180774
9.99999149318
10.0000000053
10.0000000351
10.0000000952
10.0000002051
10.0000003769
10.0000006014
10.0000008617
10.0000011377
10.0000014093
10.0000016603
10.0000018796
10.0000020608
10.000002202
10.0000023045
10.0000023715
10.0000024077
10.000002418
10.0000024074
10.0000023803
10.0000023411
10.000002293
10.0000022395
10.000002183
10.0000021255
10.0000020708
10.000002016
10.0000019728
10.0000019248
10.0000019044
10.0000018652
10.0000018789
10.0000018582
10.0000018956
10.0000019623
10.0000018827
10.0000023827
10.0000015071
10.0000038129
9.99999964861
10.0000082429
9.99999333542
10.0000201725
9.99997689324
10.000046062
9.99994574314
10.0000846182
9.99991469802
10.0000988007
9.99995209949
9.99998635354
10.0001843239
9.99963268579
10.0006285956
9.99928768371
10.0005685689
9.99991256333
10.0003735072
9.99888207918
9.99029651411
9.97369787259
9.94457042426
9.90716982728
9.86650377892
9.83132463843