/*--------------------------------*- C++ -*----------------------------------*\
  =========                 |
  \\      /  F ield         | OpenFOAM: The Open Source CFD Toolbox
   \\    /   O peration     | Website:  https://openfoam.org
    \\  /    A nd           | Version:  7
     \\/     M anipulation  |
\*---------------------------------------------------------------------------*/
FoamFile
{
    version     2.0;
    format      ascii;
    class       surfaceScalarField;
    location    "1020";
    object      phi;
}
// * * * * * * * * * * * * * * * * * * * * * * * * * * * * * * * * * * * * * //

dimensions      [0 3 -1 0 0 0 0];

internalField   nonuniform List<scalar> 
16192
(
6.92896505212e-10
2.44603494788e-10
4.93509794202e-10
1.99386717957e-10
3.64764376535e-10
1.28745423687e-10
2.82194860589e-10
8.25695210125e-11
2.27602533076e-10
5.45923320636e-11
1.90039882954e-10
3.75626545195e-11
1.63160445385e-10
2.68794419687e-11
1.43248370856e-10
1.99120790115e-11
1.28066965989e-10
1.51814094259e-11
1.16222115675e-10
1.18448549815e-11
1.06812338093e-10
9.40978233038e-12
9.92335647182e-11
7.57877824515e-12
9.30675297272e-11
6.16603994542e-12
8.80160614323e-11
5.05147337933e-12
8.38611718529e-11
4.15489474539e-12
8.04400489735e-11
3.42112817556e-12
7.76289105603e-11
2.81114377751e-12
7.53322843067e-11
2.29663173635e-12
7.34757052234e-11
1.85658460842e-12
7.20006248813e-11
1.47508596091e-12
7.0860787549e-11
1.13984295494e-12
7.00196035014e-11
8.41189727157e-13
6.94482135044e-11
5.71395630898e-13
6.91240435093e-11
3.24175640107e-13
6.90297116875e-11
9.43373645633e-14
6.91521945722e-11
-1.2247738137e-13
6.94821835569e-11
-3.29983641244e-13
7.00135848785e-11
-5.31396066268e-13
7.07431279412e-11
-7.29538018632e-13
7.16700558718e-11
-9.26923012851e-13
7.27958748503e-11
-1.1258143075e-12
7.41241455924e-11
-1.32826621541e-12
7.56602993496e-11
-1.53614948718e-12
7.74114646894e-11
-1.75116120178e-12
7.9386287843e-11
-1.97481924705e-12
8.15947316775e-11
-2.20844000869e-12
8.40478333092e-11
-2.45309796902e-12
8.67574018652e-11
-2.70956487764e-12
8.97356324171e-11
-2.97822692038e-12
9.29946144277e-11
-3.25897821843e-12
9.65457095486e-11
-3.55109121122e-12
1.00398780137e-10
-3.85306632675e-12
1.04561252811e-10
-4.16246808604e-12
1.09037017383e-10
-4.47575940135e-12
1.13825176223e-10
-4.78815310214e-12
1.18918688324e-10
-5.09350552856e-12
1.24302978551e-10
-5.38428283669e-12
1.29954617744e-10
-5.65163072124e-12
1.35840200485e-10
-5.88557323555e-12
1.41915562461e-10
-6.07535120407e-12
1.48125463979e-10
-6.20988959722e-12
1.54403834422e-10
-6.27835722593e-12
1.60674611479e-10
-6.27076279087e-12
1.66853150697e-10
-6.17852391127e-12
1.72848125497e-10
-5.99495889954e-12
1.78563819491e-10
-5.7156777146e-12
1.83902716781e-10
-5.33888131237e-12
1.88768332482e-10
-4.86560042495e-12
1.93068259205e-10
-4.29991297876e-12
1.96717438924e-10
-3.64916796087e-12
1.99641654408e-10
-2.92420651745e-12
2.0178114257e-10
-2.13948231127e-12
2.03094005056e-10
-1.3128603567e-12
2.03558821091e-10
-4.64817669914e-13
2.03175743099e-10
3.83072307966e-13
2.01965611499e-10
1.2101221792e-12
1.99967205426e-10
1.99839298319e-12
1.97233316999e-10
2.7338722775e-12
1.93826626496e-10
3.40667157829e-12
1.89816217107e-10
4.01038841245e-12
1.85275109823e-10
4.54108458219e-12
1.80278742074e-10
4.99634402366e-12
1.74904039573e-10
5.37467804003e-12
1.69228690547e-10
5.67532445762e-12
1.6333031866e-10
5.89834743016e-12
1.57285396902e-10
6.04489793762e-12
1.51167876573e-10
6.11749726098e-12
1.45047622454e-10
6.12023219785e-12
1.38988814488e-10
6.05878718025e-12
1.33048509864e-10
5.94028521917e-12
1.2727553661e-10
5.77295509451e-12
1.21709839542e-10
5.56568027097e-12
1.16382320591e-10
5.32750328491e-12
1.11315146852e-10
5.06715923688e-12
1.06522439395e-10
4.79269383532e-12
1.02011229634e-10
4.51119701495e-12
9.77825602172e-11
4.22865725334e-12
9.38326249891e-11
3.94992364048e-12
9.01538625102e-11
3.67875119267e-12
8.67359489577e-11
3.41790258322e-12
8.35666572874e-11
3.16928077873e-12
8.06325736324e-11
2.93407288875e-12
7.79196722443e-11
2.71289054901e-12
7.54137630704e-11
2.50589834287e-12
7.31008267984e-11
2.31292528987e-12
7.09672574607e-11
2.13355831399e-12
6.90000284256e-11
1.96721784393e-12
6.71867996001e-11
1.81321759705e-12
6.55159778532e-11
1.67081038067e-12
6.39767438963e-11
1.53922259564e-12
6.25590531622e-11
1.41767929539e-12
6.12536196777e-11
1.30542211578e-12
6.00518868847e-11
1.20172142328e-12
5.89459912441e-11
1.10588441623e-12
5.79287200945e-11
1.01726000628e-12
5.69934674449e-11
9.35241728069e-13
5.61341875509e-11
8.59269133668e-13
5.53453484794e-11
7.88828604781e-13
5.4621884401e-11
7.23453846367e-13
5.39591476683e-11
6.62726858714e-13
5.33528584527e-11
6.06279641563e-13
5.27990518029e-11
5.53797490225e-13
5.22940186402e-11
5.05024360407e-13
5.18342387753e-11
4.59771526147e-13
5.14163001926e-11
4.17930651672e-13
5.10367992682e-11
3.79493500556e-13
5.06922112468e-11
3.44581051608e-13
5.03787179158e-11
3.13486910648e-13
5.00919697133e-11
2.86742283739e-13
4.98267493529e-11
2.65215040054e-13
4.95764812688e-11
2.50263324124e-13
4.93324985268e-11
2.43978642232e-13
4.90829206362e-11
2.49574411317e-13
4.88109203247e-11
2.71997516201e-13
4.8492114292e-11
3.18803799131e-13
4.80912471901e-11
4.00865393374e-13
4.75611561539e-11
5.30089889279e-13
6.80198594587e-13
9.53381457949e-10
2.28722044612e-10
8.59597594693e-10
2.93170592862e-10
7.45064589947e-10
2.43278438418e-10
6.41935595678e-10
1.85698523806e-10
5.56837452768e-10
1.39690482916e-10
4.88563920248e-10
1.05836194888e-10
4.34088070548e-10
8.13552996062e-11
3.90452546009e-10
6.35476116472e-11
3.5523996892e-10
5.03939947792e-11
3.26590886951e-10
4.04939454088e-11
3.0310389191e-10
3.28967860145e-11
2.83725757741e-10
2.69569212711e-11
2.67660622238e-10
2.22311845007e-11
2.54301578152e-10
1.84105267375e-11
2.431809666e-10
1.5275515758e-11
2.33934689666e-10
1.26674147752e-11
2.26276591951e-10
1.04692513163e-11
2.19979960338e-10
8.59327333859e-12
2.14864040936e-10
6.97251410081e-12
2.10784108185e-10
5.55502890461e-12
2.07624068209e-10
4.29989314277e-12
2.05290889726e-10
3.17437843544e-12
2.03710366353e-10
2.15192914876e-12
2.02823861106e-10
1.21069094318e-12
2.02585781944e-10
3.32426391078e-13
2.02961608011e-10
-4.98293782167e-13
2.03926330781e-10
-1.29469704641e-12
2.05463211829e-10
-2.06826804682e-12
2.07562781439e-10
-2.82909895596e-12
2.10222017564e-10
-3.58615083516e-12
2.13443653675e-10
-4.34744256806e-12
2.17235573523e-10
-5.12017861005e-12
2.21610252335e-10
-5.91082129983e-12
2.26584208014e-10
-6.7251102427e-12
2.32177422957e-10
-7.56802793316e-12
2.38412698062e-10
-8.44370910069e-12
2.45314895219e-10
-9.35528933174e-12
2.52910024646e-10
-1.03046885428e-11
2.61224128774e-10
-1.12923252448e-11
2.7028191748e-10
-1.2316760838e-11
2.8010511081e-10
-1.33742780528e-11
2.90710458535e-10
-1.44584068679e-11
3.02107421682e-10
-1.55594231925e-11
3.14295533769e-10
-1.66638622579e-11
3.2726149789e-10
-1.77541066192e-11
3.40976131749e-10
-1.88081270626e-11
3.55391329386e-10
-1.9799466256e-11
3.70437270149e-10
-2.06975550656e-11
3.86020146455e-10
-2.14684308288e-11
4.02020700246e-10
-2.20758838003e-11
4.18293827346e-10
-2.24829931124e-11
4.3466943846e-10
-2.26539424189e-11
4.50954651194e-10
-2.2555947675e-11
4.6693726844e-10
-2.21611118052e-11
4.82390393271e-10
-2.14480537031e-11
4.97077980974e-10
-2.04032355557e-11
5.10761126656e-10
-1.90219985094e-11
5.23204930393e-10
-1.73093781707e-11
5.34185825133e-10
-1.52807855662e-11
5.43499280877e-10
-1.29626064648e-11
5.50967753592e-10
-1.03926680257e-11
5.56448574272e-10
-7.6202985086e-12
5.59841102815e-10
-4.70539174869e-12
5.61092036847e-10
-1.71576195547e-12
5.60197605038e-10
1.27748651749e-12
5.5720185159e-10
4.20585127913e-12
5.52191250861e-10
7.00896326593e-12
5.45286913333e-10
9.638174304e-12
5.36636161424e-10
1.20573838436e-11
5.26405018837e-10
1.42414883482e-11
5.14772379677e-10
1.617367897e-11
5.01925818867e-10
1.78428589691e-11
4.88058508886e-10
1.92419418131e-11
4.73366594958e-10
2.03671926921e-11
4.58046504999e-10
2.12183927661e-11
4.42291903354e-10
2.17994566655e-11
4.26290234137e-10
2.2119125582e-11
4.10219011286e-10
2.21914165461e-11
3.94242152183e-10
2.20356102254e-11
3.78506715279e-10
2.16756886275e-11
3.63140370323e-10
2.11392689448e-11
3.48249834088e-10
2.04561877135e-11
3.33920362235e-10
1.96569483418e-11
3.20216251282e-10
1.87712452063e-11
3.07182189769e-10
1.78267318057e-11
2.94845235284e-10
1.68481291852e-11
2.83217171596e-10
1.58566994935e-11
2.72297021774e-10
1.4870052701e-11
2.6207353145e-10
1.39022211297e-11
2.52527490459e-10
1.29639234435e-11
2.4363380761e-10
1.20629435154e-11
2.35363298823e-10
1.1204561532e-11
2.27684177991e-10
1.03919910408e-11
2.20563265142e-10
9.62679067363e-12
2.13966936844e-10
8.90923278989e-12
2.07861853444e-10
8.23862070778e-12
2.02215496567e-10
7.61355345733e-12
1.96996551946e-10
7.03214080456e-12
1.92175166703e-10
6.49217404524e-12
1.87723109068e-10
5.99125861897e-12
1.83613851611e-10
5.52691511244e-12
1.79822597773e-10
5.09665442552e-12
1.76326265175e-10
4.69803262116e-12
1.73103438589e-10
4.32868987015e-12
1.70134300183e-10
3.986377564e-12
1.6740054481e-10
3.66897667027e-12
1.64885283718e-10
3.37451022692e-12
1.62572940765e-10
3.10115211373e-12
1.60449141449e-10
2.84723428192e-12
1.58500595974e-10
2.61125412947e-12
1.567149741e-10
2.39188399158e-12
1.55080770337e-10
2.18798451015e-12
1.5358715452e-10
1.99862421622e-12
1.52223803133e-10
1.82310782674e-12
1.50980702818e-10
1.66101675407e-12
1.49847916999e-10
1.51226606856e-12
1.48815301908e-10
1.3771838542e-12
1.47872157064e-10
1.2566205184e-12
1.47006790981e-10
1.15209819146e-12
1.46205984707e-10
1.06601229336e-12
1.45454342495e-10
1.00189768009e-12
1.44733551686e-10
9.64762840318e-13
1.44021663006e-10
9.61457704799e-13
1.43292747519e-10
1.0009088745e-12
1.42517928746e-10
1.09361963491e-12
1.41670373599e-10
1.248418611e-12
1.40741908827e-10
1.45855358585e-12
1.65122691479e-12
9.76217030028e-10
1.90005020598e-10
9.62984700701e-10
3.06402930371e-10
9.06125785477e-10
3.00137360558e-10
8.33807799022e-10
2.58016516593e-10
7.61025315107e-10
2.12472972892e-10
6.94187801714e-10
1.72673714353e-10
6.35363646151e-10
1.40179461342e-10
5.84655030602e-10
1.14256233539e-10
5.41377026997e-10
9.36720048695e-11
5.04606872679e-10
7.72641064045e-11
4.73422508859e-10
6.40811566645e-11
4.46994273811e-10
5.33851633577e-11
4.24610233328e-10
4.46152321803e-11
4.05673513778e-10
3.73472537e-11
3.896893749e-10
3.12596621976e-11
3.76249877611e-10
2.6106919833e-11
3.65019365424e-10
2.16997713897e-11
3.55721867693e-10
1.78907791314e-11
3.48130613435e-10
1.45637764841e-11
3.42059483234e-10
1.16261673494e-11
3.37356110738e-10
9.00327386929e-12
3.33896339625e-10
6.63415781799e-12
3.31579771594e-10
4.46850534115e-12
3.3032618606e-10
2.46428458532e-12
3.30072650736e-10
5.85969610669e-13
3.30771180273e-10
-1.19681557599e-12
3.32386823128e-10
-2.91033247403e-12
3.34896087469e-10
-4.57752520071e-12
3.38285628184e-10
-6.21863288779e-12
3.42551129982e-10
-7.85164615435e-12
3.47696327978e-10
-9.49263453983e-12
3.53732115673e-10
-1.11559606059e-11
3.60675689391e-10
-1.28543897711e-11
3.68549682206e-10
-1.45990980956e-11
3.77381235633e-10
-1.63995767774e-11
3.87200958677e-10
-1.82634277286e-11
3.98041717331e-10
-2.01960437919e-11
4.09937198986e-10
-2.22001659611e-11
4.22920191643e-10
-2.42753136397e-11
4.37020524307e-10
-2.64170888949e-11
4.52262618931e-10
-2.86163677009e-11
4.68662624436e-10
-3.08584066641e-11
4.86225125963e-10
-3.3121918217e-11
5.04939466756e-10
-3.5378195354e-11
5.24775770293e-10
-3.75904011919e-11
5.45680822231e-10
-3.97131683528e-11
5.67574042843e-10
-4.16926744794e-11
5.90343858052e-10
-4.34673557621e-11
6.13844827102e-10
-4.49693832624e-11
6.37895906837e-10
-4.6126944537e-11
6.62280191399e-10
-4.6867256483e-11
6.86746374537e-10
-4.71201021083e-11
7.11012031947e-10
-4.68215798675e-11
7.34768663926e-10
-4.5917717066e-11
7.57688296711e-10
-4.43676591534e-11
7.79431370332e-10
-4.21462818803e-11
7.99655629189e-10
-3.92462313633e-11
8.1802577657e-10
-3.56795017596e-11
8.3422369466e-10
-3.14786834773e-11
8.47959060035e-10
-2.66979561568e-11
8.58980145162e-10
-2.14137431755e-11
8.67084424611e-10
-1.5724574208e-11
8.72128165587e-10
-9.74913593167e-12
8.74033598217e-10
-3.62120468559e-12
8.72791988925e-10
2.51907872745e-12
8.68461532084e-10
8.53628476464e-12
8.61160342049e-10
1.43101241686e-11
8.51056212476e-10
1.97422701066e-11
8.38355479213e-10
2.47580794468e-11
8.23292979836e-10
2.93039473785e-11
8.06124059952e-10
3.33425565337e-11
7.8711854694e-10
3.68483287702e-11
7.66556022344e-10
3.98044228878e-11
7.4472162452e-10
4.22015475969e-11
7.21901780919e-10
4.40381944561e-11
6.9837954744e-10
4.53216499371e-11
6.74429509206e-10
4.60691254994e-11
6.50312449921e-10
4.63084398489e-11
6.26270167175e-10
4.60778592749e-11
6.02520889807e-10
4.54249347858e-11
5.79255712479e-10
4.44044172952e-11
5.56636341027e-10
4.30755324384e-11
5.34794261263e-10
4.14990032434e-11
5.13831270233e-10
3.97342131565e-11
4.93821162549e-10
3.7836817751e-11
4.74812284334e-10
3.58569868919e-11
4.56830636844e-10
3.38383272755e-11
4.39883237148e-10
3.18174334022e-11
4.23961489082e-10
2.98239505352e-11
4.09044384651e-10
2.78810095138e-11
3.9510141408e-10
2.6005895716e-11
3.82095120937e-10
2.42108363246e-11
3.69983276987e-10
2.25038164225e-11
3.58720685727e-10
2.08893632372e-11
3.48260639035e-10
1.93692604854e-11
3.38556066171e-10
1.79431744118e-11
3.29560415027e-10
1.66091851568e-11
3.21228309479e-10
1.53642267948e-11
3.1351602044e-10
1.42044433272e-11
3.06381787837e-10
1.31254714559e-11
2.99786022437e-10
1.21226606764e-11
2.93691415199e-10
1.11912419502e-11
2.88062973839e-10
1.03264543428e-11
2.82868005495e-10
9.5236388411e-12
2.78076057477e-10
8.77830643176e-12
2.73658828078e-10
8.08618732147e-12
2.69590053601e-10
7.44326631766e-12
2.65845378395e-10
6.84580946197e-12
2.62402209737e-10
6.29038556768e-12
2.59239560402e-10
5.77388673086e-12
2.56337877368e-10
5.29355088673e-12
2.53678856228e-10
4.84699024736e-12
2.51245236839e-10
4.43222889218e-12
2.49020576901e-10
4.04775387433e-12
2.4698899653e-10
3.69258401034e-12
2.45134888614e-10
3.366361773e-12
2.43442587676e-10
3.06947344073e-12
2.41895994804e-10
2.80320302668e-12
2.40478160848e-10
2.56992274133e-12
2.39170848132e-10
2.37331669423e-12
2.37954121949e-10
2.21861661692e-12
2.36806092026e-10
2.11278669434e-12
2.35703052314e-10
2.06449243809e-12
2.34620515328e-10
2.08344198792e-12
2.33536058777e-10
2.17807345624e-12
2.32435553893e-10
2.34892190686e-12
2.31323235363e-10
2.57087143458e-12
2.75055761826e-12
9.7177007527e-10
1.55734950104e-10
9.86705134497e-10
2.91467877202e-10
9.68247630969e-10
3.18594869593e-10
9.28017385068e-10
2.98246766993e-10
8.77869434545e-10
2.62620927472e-10
8.25325696726e-10
2.25217456176e-10
7.7453560911e-10
1.9096955306e-10
7.27531842684e-10
1.61260004212e-10
6.851278414e-10
1.36076010551e-10
6.47474649299e-10
1.14917303065e-10
6.14386718141e-10
9.71690925402e-11
5.85525643873e-10
8.22462425161e-11
5.60500379479e-10
6.96405016298e-11
5.38919642998e-10
5.89279954161e-11
5.20417536254e-10
4.97617743381e-11
5.04664480867e-10
4.18599807853e-11
4.91370341569e-10
3.49939163914e-11
4.80283584211e-10
2.89775423278e-11
4.71188589158e-10
2.36587774666e-11
4.63902264959e-10
1.89124975554e-11
4.58270558498e-10
1.46349863567e-11
4.5416515458e-10
1.07395677593e-11
4.51480490645e-10
7.15317522892e-12
4.50131124268e-10
3.81365681418e-12
4.50049444053e-10
6.6765550311e-13
4.5118369322e-10
-2.33105926978e-12
4.53496260228e-10
-5.22289428951e-12
4.56962199877e-10
-8.04345996182e-12
4.61567936284e-10
-1.082436478e-11
4.67310102054e-10
-1.35938077902e-11
4.74194468605e-10
-1.63769973925e-11
4.822349231e-10
-1.91964118205e-11
4.9145244466e-10
-2.20719084972e-11
5.01874031592e-10
-2.50206825898e-11
5.13531526843e-10
-2.80570699781e-11
5.26460286791e-10
-3.119218592e-11
5.40697633611e-10
-3.44333890985e-11
5.56281030538e-10
-3.77835614737e-11
5.73245917651e-10
-4.12401993373e-11
5.91623151205e-10
-4.47943208359e-11
6.11435997969e-10
-4.84292125048e-11
6.32696656622e-10
-5.21190627639e-11
6.55402307441e-10
-5.58275656971e-11
6.79530738625e-10
-5.95066221284e-11
7.05035657455e-10
-6.30953143212e-11
7.3184187292e-10
-6.65193765281e-11
7.59840621215e-10
-6.96914136815e-11
7.88885392286e-10
-7.2512115668e-11
8.187886794e-10
-7.48726569857e-11
8.49320099038e-10
-7.66583483906e-11
8.80206286729e-10
-7.77534259944e-11
9.11132862693e-10
-7.80466575351e-11
9.41748583273e-10
-7.74372778258e-11
9.71671595033e-10
-7.58407044896e-11
1.000497535e-09
-7.31935737278e-11
1.02780912855e-09
-6.94578497737e-11
1.05318692995e-09
-6.4624007874e-11
1.07622090326e-09
-5.87134520594e-11
1.09652259339e-09
-5.17803536894e-11
1.11373767366e-09
-4.39130207376e-11
1.12755866625e-09
-3.52347253662e-11
1.13773751222e-09
-2.590341584e-11
1.14409717006e-09
-1.61087961023e-11
1.14654056203e-09
-6.06460584152e-12
1.1450546459e-09
4.00497888474e-12
1.13970805747e-09
1.3882850948e-11
1.13064260415e-09
2.33755496879e-11
1.11806077997e-09
3.23240619304e-11
1.1022123385e-09
4.06064849964e-11
1.08338240229e-09
4.81338451273e-11
1.06188214201e-09
5.48427767223e-11
1.03804173943e-09
6.06886904995e-11
1.01220472371e-09
6.5641397727e-11
9.84722766336e-10
6.96834647668e-11
9.55950289607e-10
7.28106321782e-11
9.26238570349e-10
7.50333318868e-11
8.95929330552e-10
7.6378329985e-11
8.65348082834e-10
7.68896545157e-11
8.34797693457e-10
7.66282179238e-11
8.04552707755e-10
7.56698921213e-11
7.7485493152e-10
7.41021673917e-11
7.45910607453e-10
7.2019832472e-11
7.17889310724e-10
6.95202777839e-11
6.90924477667e-10
6.66990256585e-11
6.6511531534e-10
6.36459608491e-11
6.40529747042e-10
6.04425370549e-11
6.17208021793e-10
5.71600351846e-11
5.95166645446e-10
5.38587930007e-11
5.7440234917e-10
5.05882304019e-11
5.54895884976e-10
4.73874574894e-11
5.366155069e-10
4.42862575765e-11
5.19520058931e-10
4.13062679992e-11
5.03561636791e-10
3.84622220664e-11
4.88687826619e-10
3.5763156692e-11
4.74843544578e-10
3.32135255263e-11
4.61972516183e-10
3.08141855535e-11
4.50018438771e-10
2.85632450485e-11
4.3892587334e-10
2.64567745025e-11
4.28640908682e-10
2.44893900773e-11
4.19111638424e-10
2.26547237097e-11
4.10288485595e-10
2.09457954366e-11
4.02124405769e-10
1.93553037419e-11
3.94574993635e-10
1.7875848519e-11
3.87598514696e-10
1.65000999965e-11
3.81155878426e-10
1.52209251342e-11
3.75210566881e-10
1.40314816075e-11
3.69728528415e-10
1.29252878703e-11
3.64678044634e-10
1.18962767621e-11
3.60029575215e-10
1.09388389681e-11
3.55755584367e-10
1.00478621011e-11
3.51830349832e-10
9.21877050764e-12
3.48229755007e-10
8.44757079398e-12
3.4493106249e-10
7.7309077848e-12
3.41912667707e-10
7.0661357517e-12
3.39153830058e-10
6.45140949125e-12
3.36634380926e-10
5.88579953316e-12
3.34334409526e-10
5.36943428539e-12
3.32233934046e-10
4.90366883186e-12
3.3031257519e-10
4.49127283246e-12
3.28549268976e-10
4.13661513039e-12
3.26922087084e-10
3.84579176054e-12
3.25408287048e-10
3.62658108759e-12
3.23984795822e-10
3.48797912739e-12
3.22629440856e-10
3.43879349277e-12
3.2132332856e-10
3.48418336321e-12
3.20054456189e-10
3.61779295603e-12
3.18820316901e-10
3.80501026951e-12
3.95363272711e-12
9.63977198926e-10
1.29257753851e-10
9.87820101794e-10
2.67624978121e-10
9.90050101877e-10
3.16364872622e-10
9.72749082013e-10
3.15547789677e-10
9.42857390313e-10
2.92512621796e-10
9.06414861808e-10
2.61659987322e-10
8.67610091522e-10
2.29774326099e-10
8.29085004366e-10
1.99785094276e-10
7.92391761074e-10
1.72769256897e-10
7.58366542938e-10
1.48942524416e-10
7.27394222712e-10
1.28141416133e-10
6.99585167972e-10
1.10055300792e-10
6.74889729905e-10
9.43359433921e-11
6.53170826513e-10
8.06469026766e-11
6.34249110149e-10
6.86834947276e-11
6.17930500836e-10
5.81785942884e-11
6.04022516802e-10
4.8901904748e-11
5.92343566834e-10
4.06564967529e-11
5.82727873369e-10
3.32744754761e-11
5.75027724608e-10
2.66126509373e-11
5.69114128206e-10
2.05485873982e-11
5.64876539705e-10
1.49771608959e-11
5.62222083156e-10
9.80763634129e-12
5.61074519674e-10
4.96122475877e-12
5.61373115646e-10
3.69063815955e-13
5.63071496064e-10
-4.02943560917e-12
5.66136523162e-10
-8.28791759544e-12
5.70547229589e-10
-1.24541629059e-11
5.76293795882e-10
-1.6570927973e-11
5.83376559852e-10
-2.06765690521e-11
5.91805035403e-10
-2.48054706837e-11
6.01596911634e-10
-2.8988286227e-11
6.12776995799e-10
-3.32519913026e-11
6.25376058701e-10
-3.76197445508e-11
6.39429534552e-10
-4.2110545299e-11
6.54976022927e-10
-4.67386740858e-11
6.72055534904e-10
-5.15129011352e-11
6.90707423245e-10
-5.64354500008e-11
7.1096793488e-10
-6.15007111853e-11
7.32867328594e-10
-6.6693714591e-11
7.5642650976e-10
-7.19883933893e-11
7.8165315436e-10
-7.73457065117e-11
8.0853732508e-10
-8.2711734797e-11
8.37046630821e-10
-8.80159251926e-11
8.67121045251e-10
-9.31697247942e-11
8.98667584725e-10
-9.80659104562e-11
9.31555141764e-10
-1.02578963364e-10
9.6560987075e-10
-1.06566835203e-10
1.00061160251e-09
-1.09874377033e-10
1.03629180167e-09
-1.12338533382e-10
1.07233354132e-09
-1.13795148982e-10
1.10837384137e-09
-1.14086938436e-10
1.1440085044e-09
-1.13071919447e-10
1.17879933554e-09
-1.10631512285e-10
1.21228341883e-09
-1.06677632358e-10
1.24398401346e-09
-1.01158419208e-10
1.27342264312e-09
-9.40626128399e-11
1.30013203337e-09
-8.54228192397e-11
1.32366962199e-09
-7.53179221614e-11
1.3436314185e-09
-6.38748011993e-11
1.35966607718e-09
-5.12693732412e-11
1.37148906125e-09
-3.77263952044e-11
1.37889622792e-09
-2.3515964843e-11
1.38177484141e-09
-8.94322841367e-12
1.38010894633e-09
5.67085794449e-12
1.3739767698e-09
2.00150050577e-11
1.36354039332e-09
3.38118981404e-11
1.34903062259e-09
4.68338001556e-11
1.33073112803e-09
5.89059436021e-11
1.30896499294e-09
6.98999419255e-11
1.28408469079e-09
7.97230391395e-11
1.25646477754e-09
8.83085634562e-11
1.22649597271e-09
9.56101624138e-11
1.19457950876e-09
1.0159988941e-10
1.16112105926e-09
1.06269043705e-10
1.12652394776e-09
1.09630407203e-10
1.09118167944e-09
1.11720564196e-10
1.05547014302e-09
1.12601159123e-10
1.0197400519e-09
1.12358279579e-10
9.84310280521e-10
1.11099636393e-10
9.49462681571e-10
1.08949741448e-10
9.15438773808e-10
1.06043717422e-10
8.82438428628e-10
1.02520601972e-10
8.50620433416e-10
9.85170014843e-11
8.20104621623e-10
9.41617545579e-11
7.90975161548e-10
8.95719801143e-11
7.63284577146e-10
8.48506033446e-11
7.3705811682e-10
8.00852376527e-11
7.122981586e-10
7.53481732693e-11
6.88988424627e-10
7.06971762781e-11
6.67097855077e-10
6.61768119277e-11
6.46584058216e-10
6.18200495577e-11
6.27396302499e-10
5.76499622624e-11
6.09478053252e-10
5.36813901718e-11
5.92769078794e-10
4.99224839146e-11
5.77207165398e-10
4.6376082604e-11
5.62729486053e-10
4.30409077598e-11
5.49273670536e-10
3.99125731593e-11
5.36778621753e-10
3.69844217967e-11
5.25185120732e-10
3.42482075442e-11
5.14436257302e-10
3.16946415981e-11
5.04477719451e-10
2.93138243338e-11
4.95257968751e-10
2.70955820154e-11
4.86728325463e-10
2.5029726229e-11
4.78842982008e-10
2.31062517278e-11
4.71558960551e-10
2.13154864834e-11
4.64836026453e-10
1.96482057091e-11
4.58636567255e-10
1.80957201033e-11
4.52925443743e-10
1.66499470595e-11
4.47669818316e-10
1.53034726158e-11
4.42838963497e-10
1.40496109508e-11
4.38404052811e-10
1.2882467704e-11
4.34337934689e-10
1.1797012757e-11
4.30614890313e-10
1.07891676606e-11
4.2721037608e-10
9.85591196165e-12
4.24100753338e-10
8.99541127475e-12
4.21263010474e-10
8.2071669311e-12
4.18674488416e-10
7.4921815145e-12
4.16312628897e-10
6.85312385011e-12
4.14154779362e-10
6.29445711308e-12
4.12178108328e-10
5.82245624179e-12
4.10359713238e-10
5.44497071296e-12
4.08677032157e-10
5.17065587116e-12
4.07108678341e-10
5.00714411984e-12
4.05635698938e-10
4.95716067143e-12
4.04242661973e-10
5.01082880762e-12
4.02915810911e-10
5.13186097318e-12
5.23802105941e-12
9.57606644378e-10
1.09151112077e-10
9.82752811146e-10
2.42478814785e-10
9.95467104001e-10
3.0365058292e-10
9.92999208506e-10
3.18015687337e-10
9.78491118782e-10
3.07020713226e-10
9.56041160874e-10
2.84109946885e-10
9.29098067485e-10
2.5671742125e-10
9.00192631266e-10
2.28690532411e-10
8.71061023352e-10
2.01900866881e-10
8.42837884149e-10
1.77165665848e-10
8.16228384247e-10
1.54750918418e-10
7.91641224507e-10
1.34642463076e-10
7.69285650093e-10
1.16691520506e-10
7.49240154459e-10
1.00692401172e-10
7.31500263206e-10
8.64233889932e-11
7.16011327922e-10
7.36675327371e-11
7.0269076621e-10
6.22224697548e-11
6.91442955784e-10
5.19043105923e-11
6.82169058138e-10
4.25483766204e-11
6.74773367333e-10
3.40083453036e-11
6.6916729326e-10
2.6154665046e-11
6.65271746344e-10
1.88727113693e-11
6.63018450487e-10
1.20609356801e-11
6.62350544337e-10
5.62913427427e-12
6.63222714497e-10
-5.03103162286e-13
6.65601018806e-10
-6.40773695903e-12
6.69462508029e-10
-1.21494041527e-11
6.74794721615e-10
-1.77863741549e-11
6.81595082492e-10
-2.33712869048e-11
6.89870210038e-10
-2.89516950653e-11
6.99635151553e-10
-3.45704111259e-11
7.10912520386e-10
-4.02656544444e-11
7.23731517768e-10
-4.60709885439e-11
7.38126806914e-10
-5.20150339949e-11
7.54137199299e-10
-5.81209383993e-11
7.71804106353e-10
-6.44055821918e-11
7.91169703071e-10
-7.08784991712e-11
8.12274745998e-10
-7.75404943789e-11
8.35155985448e-10
-8.43819520965e-11
8.59843114417e-10
-9.13808448442e-11
8.86355204337e-10
-9.85004842394e-11
9.14696595791e-10
-1.05687098301e-10
9.4485224186e-10
-1.12867380389e-10
9.7678254934e-10
-1.19946231101e-10
1.01041782982e-09
-1.2680500236e-10
1.04565256297e-09
-1.33300639051e-10
1.08233978272e-09
-1.39266176676e-10
1.1202860153e-09
-1.44513059173e-10
1.15924730113e-09
-1.48835651878e-10
1.19892688984e-09
-1.52018108544e-10
1.23897516682e-09
-1.53843409757e-10
1.2789922253e-09
-1.54103978025e-10
1.3185332419e-09
-1.52612914632e-10
1.35711650309e-09
-1.49214749846e-10
1.39423366061e-09
-1.43794764602e-10
1.42936166691e-09
-1.36286399362e-10
1.46197588546e-09
-1.26676805435e-10
1.4915640078e-09
-1.1501091704e-10
1.51764050273e-09
-1.01394395358e-10
1.53976136972e-09
-8.59956506161e-11
1.55753916085e-09
-6.90471522132e-11
1.57065851978e-09
-5.08457484661e-11
1.57889196877e-09
-3.17494153992e-11
1.58211360474e-09
-1.21648735715e-11
1.58030630653e-09
7.47813942068e-12
1.57355884557e-09
2.67624423183e-11
1.56205306913e-09
4.53176449283e-11
1.54604526153e-09
6.28415734277e-11
1.52584733774e-09
7.91038296983e-11
1.50181193971e-09
9.39353000829e-11
1.47432229696e-09
1.07212640853e-10
1.4437853727e-09
1.18845446399e-10
1.41062633103e-09
1.28769163252e-10
1.37528294612e-09
1.36943234616e-10
1.3381992359e-09
1.43352715849e-10
1.29981805435e-09
1.48011552722e-10
1.26057274165e-09
1.50965843146e-10
1.22087827774e-09
1.52295591738e-10
1.18112264519e-09
1.52113883308e-10
1.14165920394e-09
1.50563051247e-10
1.1028007827e-09
1.47808138572e-10
1.06481593936e-09
1.44028538749e-10
1.02792751757e-09
1.39409003581e-10
9.92313325149e-10
1.34131175329e-10
9.5810854714e-10
1.28366515302e-10
9.25409407598e-10
1.22271103452e-10
8.94277591573e-10
1.15982403943e-10
8.64745002216e-10
1.09617812143e-10
8.36818520339e-10
1.03274640602e-10
8.1048453195e-10
9.70311502811e-11
7.85713075265e-10
9.09482542095e-11
7.6246152869e-10
8.50715816118e-11
7.40677811686e-10
7.94336645195e-11
7.20303106047e-10
7.40560807998e-11
7.01274126564e-10
6.89514480748e-11
6.83524983044e-10
6.41252105039e-11
6.66988680637e-10
5.95771942469e-11
6.51598306969e-10
5.5302930661e-11
6.37287952066e-10
5.12947603162e-11
6.23993403998e-10
4.75427390859e-11
6.1165265812e-10
4.40353708547e-11
6.00206273531e-10
4.07601922897e-11
5.89597605136e-10
3.77042338196e-11
5.79772935711e-10
3.48543791892e-11
5.70681527833e-10
3.21976433201e-11
5.62275612334e-10
2.97213859557e-11
5.54510326304e-10
2.74134760176e-11
5.4734361133e-10
2.52624197348e-11
5.40736079851e-10
2.3257463613e-11
5.3465085599e-10
2.13886820351e-11
5.29053395154e-10
1.96470578615e-11
5.23911285938e-10
1.80245635682e-11
5.19194036624e-10
1.65142493237e-11
5.14872848655e-10
1.51103435371e-11
5.10920379418e-10
1.38083697872e-11
5.07310498127e-10
1.26052818863e-11
5.04018040475e-10
1.14996146618e-11
5.01018571742e-10
1.04916411357e-11
4.98288173167e-10
9.58351415891e-12
4.95803274232e-10
8.77934869381e-12
4.93540562114e-10
8.08516197182e-12
4.91477007067e-10
7.50852042597e-12
4.89590036572e-10
7.0576221428e-12
4.87857838805e-10
6.73933882777e-12
4.86259575839e-10
6.55542172741e-12
4.84774677581e-10
6.49572612795e-12
4.83378996843e-10
6.52754146083e-12
6.58280061314e-12
9.53005307345e-10
9.36458060327e-11
9.76747041856e-10
2.18737082457e-10
9.94347018363e-10
2.86050608017e-10
1.0010797293e-09
3.11282977765e-10
9.97565986057e-10
3.10534457656e-10
9.86209179831e-10
2.95466754317e-10
9.69546209119e-10
2.73380393302e-10
9.49705039793e-10
2.48531703243e-10
9.28312941108e-10
2.23292967239e-10
9.06553521004e-10
1.9892508779e-10
8.85257586684e-10
1.76046854737e-10
8.6498922342e-10
1.54910828499e-10
8.46116722617e-10
1.35564023629e-10
8.28867718913e-10
1.17941407356e-10
8.13370804797e-10
1.01920305743e-10
7.99686397714e-10
8.73519426012e-11
7.87829364612e-10
7.40795057702e-11
7.77785448502e-10
6.19482297289e-11
7.69523090938e-10
5.08107372989e-11
7.63001863066e-10
4.05295763454e-11
7.58178414015e-10
3.09781172849e-11
7.55010610909e-10
2.20405176365e-11
7.53460366734e-10
1.3611182944e-11
7.53495518794e-10
5.59398517696e-12
7.55091021288e-10
-2.09860287356e-12
7.58229631337e-10
-9.54634446319e-12
7.62902236895e-10
-1.68220074568e-11
7.69107915139e-10
-2.39920504904e-11
7.76853774298e-10
-3.11171445466e-11
7.86154617607e-10
-3.82525372893e-11
7.97032446951e-10
-4.54482398463e-11
8.09515808294e-10
-5.27490156431e-11
8.23638967953e-10
-6.01941485353e-11
8.39440897754e-10
-6.78169645898e-11
8.56964037139e-10
-7.56440789956e-11
8.76252791491e-10
-8.36943381104e-11
8.97351718063e-10
-9.19774275724e-11
9.20303344571e-10
-1.00492122863e-10
9.45145561243e-10
-1.09224170743e-10
9.71908526602e-10
-1.18143812005e-10
1.00061103222e-09
-1.2720299128e-10
1.0312562855e-09
-1.36332352413e-10
1.06382709612e-09
-1.45438190988e-10
1.09828049615e-09
-1.54399630003e-10
1.13454189196e-09
-1.63066395653e-10
1.17249894143e-09
-1.7125768434e-10
1.21199547308e-09