/*--------------------------------*- C++ -*----------------------------------*\
  =========                 |
  \\      /  F ield         | OpenFOAM: The Open Source CFD Toolbox
   \\    /   O peration     | Website:  https://openfoam.org
    \\  /    A nd           | Version:  7
     \\/     M anipulation  |
\*---------------------------------------------------------------------------*/
FoamFile
{
    version     2.0;
    format      ascii;
    class       volVectorField;
    location    "1020";
    object      U;
}
// * * * * * * * * * * * * * * * * * * * * * * * * * * * * * * * * * * * * * //

dimensions      [0 1 -1 0 0 0 0];

internalField   nonuniform List<vector> 
8192
(
(0.00104345376334 0.000156546236664 0)
(0.000759300031625 0.000127607499493 0)
(0.000549295469272 8.23970711594e-05 0)
(0.000414053911759 5.2844493448e-05 0)
(0.000326270331945 3.49390925207e-05 0)
(0.000267291146259 2.40400988925e-05 0)
(0.000226048210136 1.720284286e-05 0)
(0.000196101642394 1.27437305673e-05 0)
(0.000173641815581 9.71610203259e-06 0)
(0.000156345012265 7.58070718818e-06 0)
(0.000142742050412 6.02226069144e-06 0)
(0.000131869377799 4.85041807689e-06 0)
(0.000123072700445 3.94626556507e-06 0)
(0.000115893498342 3.23294296277e-06 0)
(0.000110001429303 2.65913263705e-06 0)
(0.000105152781329 2.18952203236e-06 0)
(0.000101164134102 1.7991320176e-06 0)
(9.78951647149e-05 1.46984431126e-06 0)
(9.52371132992e-05 1.18821414939e-06 0)
(9.3104851267e-05 9.44055014984e-07 0)
(9.14313039554e-05 7.29499491164e-07 0)
(9.01634502722e-05 5.3836142538e-07 0)
(8.92594028837e-05 3.65693203775e-07 0)
(8.86862444887e-05 2.07472409669e-07 0)
(8.84184033259e-05 6.03759133205e-08 0)
(8.84364200062e-05 -7.83855240766e-08 0)
(8.87260020026e-05 -2.11189530396e-07 0)
(8.92772917986e-05 -3.40093482411e-07 0)
(9.00842962046e-05 -4.66904331924e-07 0)
(9.11444376403e-05 -5.93230728225e-07 0)
(9.24581956621e-05 -7.205211568e-07 0)
(9.40288130833e-05 -8.50090377861e-07 0)
(9.58620447629e-05 -9.83135671796e-07 0)
(9.79659289849e-05 -1.12074316914e-06 0)
(0.000100350561621 -1.26388431811e-06 0)
(0.000103027852493 -1.41340160556e-06 0)
(0.000106011241591 -1.56998270017e-06 0)
(0.000109315350512 -1.73412152169e-06 0)
(0.000112955541941 -1.90606522904e-06 0)
(0.000116947357981 -2.08574605979e-06 0)
(0.000121305807345 -2.27269837518e-06 0)
(0.000126044473399 -2.46596244912e-06 0)
(0.000131174421087 -2.66397957507e-06 0)
(0.000136702892924 -2.86448601686e-06 0)
(0.000142631803908 -3.06441798537e-06 0)
(0.00014895607331 -3.25984353828e-06 0)
(0.0001556618668 -3.44594101548e-06 0)
(0.000162724861628 -3.6170436616e-06 0)
(0.000170108683667 -3.76676687075e-06 0)
(0.000177763688286 -3.88822477061e-06 0)
(0.000185626256922 -3.97432934222e-06 0)
(0.000193618750977 -4.01814862459e-06 0)
(0.000201650205376 -4.01328818616e-06 0)
(0.000209617767793 -3.95425530321e-06 0)
(0.000217408816765 -3.8367736957e-06 0)
(0.000224903644792 -3.65803373734e-06 0)
(0.000231978583214 -3.41688403991e-06 0)
(0.000238509471529 -3.11398427197e-06 0)
(0.00024437541868 -2.75194430641e-06 0)
(0.000249462846803 -2.33546749496e-06 0)
(0.000253669819732 -1.87149217117e-06 0)
(0.000256910590065 -1.36926867921e-06 0)
(0.00025912009448 -8.40230628287e-07 0)
(0.000260257808734 -2.97483308745e-07 0)
(0.000260310121081 2.45166277098e-07 0)
(0.000259290466943 7.74478194689e-07 0)
(0.000257237002832 1.27897150924e-06 0)
(0.000254208334352 1.7496782576e-06 0)
(0.000250278363837 2.18026981011e-06 0)
(0.000245531419906 2.56664858396e-06 0)
(0.000240058449235 2.9062941326e-06 0)
(0.000233954465214 3.19766017514e-06 0)
(0.000227316980254 3.43979394562e-06 0)
(0.000220244947277 3.63220765288e-06 0)
(0.000212837765893 3.7749423553e-06 0)
(0.00020519405796 3.86873468008e-06 0)
(0.000197410095024 3.91519824702e-06 0)
(0.000189577919377 3.91694860662e-06 0)
(0.000181783319643 3.87762379536e-06 0)
(0.000174103887585 3.80178254027e-06 0)
(0.000166607389744 3.69469126049e-06 0)
(0.000159350640738 3.56203537342e-06 0)
(0.000152378982485 3.40960210234e-06 0)
(0.000145726379164 3.24298191161e-06 0)
(0.000139416055198 3.06732405461e-06 0)
(0.000133461548179 2.88716608957e-06 0)
(0.000127868025505 2.70634064214e-06 0)
(0.000122633718532 2.52795112991e-06 0)
(0.000117751352 2.35440076331e-06 0)
(0.000113209479339 2.18745765326e-06 0)
(0.000108993667997 2.02833969839e-06 0)
(0.000105087507789 1.8778066488e-06 0)
(0.000101473437361 1.73624995136e-06 0)
(9.81333986014e-05 1.60377493943e-06 0)
(9.5049337516e-05 1.48027218552e-06 0)
(9.22035739258e-05 1.36547732095e-06 0)
(8.95790629672e-05 1.25901942012e-06 0)
(8.71595699364e-05 1.16045926211e-06 0)
(8.49297775701e-05 1.06931864363e-06 0)
(8.28753419197e-05 9.8510246121e-07 0)
(8.09829101175e-05 9.07314749048e-07 0)
(7.92401106175e-05 8.35470154098e-07 0)
(7.76355241999e-05 7.69101710897e-07 0)
(7.61586420024e-05 7.07766026389e-07 0)
(7.47998152567e-05 6.51046404017e-07 0)
(7.35502000253e-05 5.98554705964e-07 0)
(7.24016991974e-05 5.49932245548e-07 0)
(7.13469030594e-05 5.0485030706e-07 0)
(7.03790290434e-05 4.63010461675e-07 0)
(6.94918605243e-05 4.24145189577e-07 0)
(6.86796839174e-05 3.880189706e-07 0)
(6.79372225636e-05 3.54430393744e-07 0)
(6.72595650836e-05 3.2321559066e-07 0)
(6.66420847459e-05 2.94253776734e-07 0)
(6.60803449394e-05 2.6747561707e-07 0)
(6.55699836549e-05 2.42875840356e-07 0)
(6.51065667296e-05 2.20531873029e-07 0)
(6.46853946641e-05 2.00631622815e-07 0)
(6.43012400826e-05 1.83515061593e-07 0)
(6.39479802024e-05 1.69737625635e-07 0)
(6.36180675979e-05 1.60168527439e-07 0)
(6.33017470692e-05 1.56146331028e-07 0)
(6.29858682643e-05 1.59727623243e-07 0)
(6.2652058215e-05 1.74078410369e-07 0)
(6.22739421547e-05 2.04034431444e-07 0)
(6.18133513486e-05 2.5655385176e-07 0)
(6.12175381402e-05 3.39257529139e-07 0)
(6.04429523934e-05 4.35327100536e-07 0)
(0.00121016413309 0.000302928345216 0)
(0.00116030659369 0.000315236678925 0)
(0.00102698379817 0.000238095271747 0)
(0.0008876801188 0.000171691548684 0)
(0.000767214751005 0.000124341001587 0)
(0.00066905687873 9.17752636207e-05 0)
(0.000590497274109 6.9270234608e-05 0)
(0.000527705994596 5.34142020215e-05 0)
(0.000477243209554 4.19682586913e-05 0)
(0.000436371747757 3.34968322498e-05 0)
(0.000403004658471 2.70762037407e-05 0)
(0.000375570975777 2.21028476904e-05 0)
(0.000352887283187 1.81742236455e-05 0)
(0.00033405580825 1.50156800748e-05 0)
(0.000318388828641 1.24354627222e-05 0)
(0.00030535402001 1.02966674885e-05 0)
(0.000294535220235 8.49945286002e-06 0)
(0.000285604193465 6.96953924796e-06 0)
(0.000278300160816 5.65062317391e-06 0)
(0.000272414815437 4.49927351393e-06 0)
(0.000267781232892 3.48143110254e-06 0)
(0.000264265573078 2.56996362406e-06 0)
(0.000261760803891 1.74292785898e-06 0)
(0.000260181905574 9.82314613306e-07 0)
(0.000259462171552 2.7312880361e-07 0)
(0.000259550329571 -3.97293544663e-07 0)
(0.000260408280827 -1.0397956401e-06 0)
(0.00026200930727 -1.66378503238e-06 0)
(0.000264336635692 -2.27752766374e-06 0)
(0.000267382271362 -2.88836726273e-06 0)
(0.000271146029593 -3.50288440036e-06 0)
(0.000275634705407 -4.1270046883e-06 0)
(0.000280861328549 -4.76606130368e-06 0)
(0.000286844454623 -5.42481372447e-06 0)
(0.000293607443821 -6.10742219534e-06 0)
(0.000301177677452 -6.81737543001e-06 0)
(0.0003095856597 -7.55736787248e-06 0)
(0.000318863948714 -8.32912218911e-06 0)
(0.000329045858189 -9.13315338571e-06 0)
(0.000340163869602 -9.96847299614e-06 0)
(0.000352247698105 -1.0832236329e-05 0)
(0.00036532196438 -1.17193428446e-05 0)
(0.000379403443339 -1.26220104183e-05 0)
(0.000394497891488 -1.35293578619e-05 0)
(0.000410596500262 -1.44270462216e-05 0)
(0.000427672082969 -1.52970448584e-05 0)
(0.000445675175126 -1.61175994193e-05 0)
(0.000464530303702 -1.68634789036e-05 0)
(0.000484132746626 -1.75065626012e-05 0)
(0.000504346141889 -1.80167904028e-05 0)
(0.000525001297659 -1.83634449342e-05 0)
(0.000545896490116 -1.85166717727e-05 0)
(0.000566799417379 -1.84490946982e-05 0)
(0.000587450828565 -1.81373668586e-05 0)
(0.000607569703495 -1.75635280657e-05 0)
(0.000626859759517 -1.6716104493e-05 0)
(0.000645017028883 -1.55909630859e-05 0)
(0.000661738276512 -1.41919863012e-05 0)
(0.000676730083536 -1.25316470687e-05 0)
(0.000689718467847 -1.06315356324e-05 0)
(0.00070045890206 -8.52279970762e-06 0)
(0.000708746449833 -6.24625972472e-06 0)
(0.000714425393336 -3.85168134745e-06 0)
(0.000717397209384 -1.39557096024e-06 0)
(0.000717625370806 1.06275764829e-06 0)
(0.000715135652242 3.46622301333e-06 0)
(0.000710011585569 5.76470799944e-06 0)
(0.000702386025084 7.91810981216e-06 0)
(0.000692430767845 9.89699546999e-06 0)
(0.000680346355368 1.16812011268e-05 0)
(0.000666353535049 1.32574486734e-05 0)
(0.000650686847068 1.46170899154e-05 0)
(0.000633589969762 1.5754636706e-05 0)
(0.00061531206646 1.66672109758e-05 0)
(0.000596104383972 1.73547137256e-05 0)
(0.000576216581346 1.7820386946e-05 0)
(0.000555892567995 1.80714386195e-05 0)
(0.000535365917071 1.81194551961e-05 0)
(0.00051485514462 1.79804143396e-05 0)
(0.000494559275176 1.76742232619e-05 0)
(0.000474654134786 1.72238233852e-05 0)
(0.000455289730823 1.66539955101e-05 0)
(0.000436588925647 1.59900490411e-05 0)
(0.000418647432651 1.52565788437e-05 0)
(0.000401535002273 1.44764324102e-05 0)
(0.000385297552034 1.36699687681e-05 0)
(0.000369959940403 1.2854628318e-05 0)
(0.000355529083756 1.20447848585e-05 0)
(0.000341997154063 1.12518222863e-05 0)
(0.000329344654022 1.04843686571e-05 0)
(0.000317543230764 9.74862354825e-06 0)
(0.000306558148117 9.04872602931e-06 0)
(0.000296350385161 8.38712421746e-06 0)
(0.000286878363605 7.76492097056e-06 0)
(0.000278099329271 7.18218117105e-06 0)
(0.000269970425784 6.63819457393e-06 0)
(0.000262449504007 6.13169363281e-06 0)
(0.000255495711048 5.66102937703e-06 0)
(0.000249069899935 5.22431003259e-06 0)
(0.000243134896493 4.81950797735e-06 0)
(0.000237655654834 4.44454042101e-06 0)
(0.000232599327606 4.09732898643e-06 0)
(0.000227935272287 3.77584258844e-06 0)
(0.000223635010409 3.47812754328e-06 0)
(0.000219672152814 3.20232804498e-06 0)
(0.000216022300795 2.94669977494e-06 0)
(0.000212662930258 2.70961879077e-06 0)
(0.000209573263669 2.48958765985e-06 0)
(0.000206734132617 2.2852404021e-06 0)
(0.000204127831951 2.09534783244e-06 0)
(0.000201737964848 1.91882472521e-06 0)
(0.00019954927644 1.75474048024e-06 0)
(0.000197547471909 1.60233508904e-06 0)
(0.000195719012898 1.46104278585e-06 0)
(0.000194050883809 1.33052633967e-06 0)
(0.000192530316683 1.21072612423e-06 0)
(0.000191144460101 1.10192953972e-06 0)
(0.000189879973742 1.00486875459e-06 0)
(0.000188722526749 9.20857904129e-07 0)
(0.00018765617644 8.51985493385e-07 0)
(0.000186662609409 8.01383042699e-07 0)
(0.000185720252276 7.73594548832e-07 0)
(0.000184803337403 7.75060554314e-07 0)
(0.000183881222736 8.14660090047e-07 0)
(0.00018291883281 9.03950997786e-07 0)
(0.000181880513501 1.0555417628e-06 0)
(0.000180743860752 1.27273182408e-06 0)
(0.000179528184904 1.492112326e-06 0)
(0.00122477889922 0.000267985321735 0)
(0.00124108910767 0.000383727054869 0)
(0.00119623071115 0.000347786111345 0)
(0.00111355749408 0.000283977625855 0)
(0.00102069319304 0.000225384611717 0)
(0.000931336394766 0.000178246341914 0)
(0.000850912926633 0.000141782247007 0)
(0.000780811953121 0.000113794460919 0)
(0.000720660516863 9.22022397752e-05 0)
(0.000669429695793 7.53651531605e-05 0)
(0.000625938804185 6.20658833146e-05 0)
(0.000589066740909 5.14189341625e-05 0)
(0.000557826884569 4.27817066758e-05 0)
(0.000531381598148 3.568497948e-05 0)
(0.000509032248754 2.97825138916e-05 0)
(0.000490201121607 2.48155741493e-05 0)
(0.000474412315543 2.05881745318e-05 0)
(0.000461274389195 1.69497935808e-05 0)
(0.000450465587922 1.37832259743e-05 0)
(0.000441721661868 1.09959656026e-05 0)
(0.000434825980142 8.51402688772e-06 0)
(0.000429601568232 6.2774632022e-06 0)
(0.00042590471118 4.23707807354e-06 0)
(0.000423619812899 2.35198433824e-06 0)
(0.000422655255549 5.87773441118e-07 0)
(0.000422940051846 -1.08486998922e-06 0)
(0.000424421122177 -2.69121889308e-06 0)
(0.000427061062782 -4.25330767842e-06 0)
(0.000430836298018 -5.79054838e-06 0)
(0.000435735525226 -7.32019007328e-06 0)
(0.000441758373095 -8.85764934905e-06 0)
(0.000448914203937 -1.04167290982e-05 0)
(0.000457220995241 -1.20097350854e-05 0)
(0.000466704237822 -1.36474933365e-05 0)
(0.000477395787417 -1.53392670147e-05 0)
(0.000489332604358 -1.70925675707e-05 0)
(0.000502555312645 -1.89128531991e-05 0)
(0.000517106506443 -2.08031068825e-05 0)
(0.000533028730003 -2.27632888861e-05 0)
(0.000550362058208 -2.47896638291e-05 0)
(0.000569141211672 -2.68740132824e-05 0)
(0.000589392155755 -2.90027606605e-05 0)
(0.000611128160256 -3.11560585021e-05 0)
(0.00063434533934 -3.33069168716e-05 0)
(0.000659017751711 -3.54204849991e-05 0)
(0.000685092219216 -3.74536290659e-05 0)
(0.000712483113648 -3.93549700706e-05 0)
(0.000741067456573 -4.10655429297e-05 0)
(0.000770680758498 -4.25202010184e-05 0)
(0.000801114069721 -4.36498101359e-05 0)
(0.000832112702871 -4.43841597411e-05 0)
(0.000863377002199 -4.46553884974e-05 0)
(0.000894565380149 -4.44016176272e-05 0)
(0.000925299645359 -4.35704504776e-05 0)
(0.000955172454808 -4.21220562281e-05 0)
(0.000983756586907 -4.00316911591e-05 0)
(0.00101061567969 -3.72916671185e-05 0)
(0.00103531609969 -3.39128831554e-05 0)
(0.00105743966159 -2.99260601878e-05 0)
(0.001076596963 -2.53827600778e-05 0)
(0.00109244109133 -2.03561031688e-05 0)
(0.00110468132465 -1.49407185386e-05 0)
(0.00111309605773 -9.25089771543e-06 0)
(0.00111754352883 -3.41565865027e-06 0)
(0.00111796837577 2.42980175676e-06 0)
(0.00111440225345 8.15496706801e-06 0)
(0.00110695799945 1.36442159581e-05 0)
(0.0010958185949 1.88034844228e-05 0)
(0.00108122348268 2.35618965058e-05 0)
(0.00106345501379 2.78690788651e-05 0)
(0.00104282690546 3.16903907224e-05 0)
(0.00101967526841 3.50023601532e-05 0)
(0.000994351724342 3.77896734086e-05 0)
(0.000967217693993 4.0043993785e-05 0)
(0.000938638979482 4.17642158222e-05 0)
(0.00090898005015 4.29575082257e-05 0)
(0.000878597796253 4.36404806921e-05 0)
(0.000847834853841 4.38399080928e-05 0)
(0.000817012874942 4.35926204802e-05 0)
(0.000786426276469 4.29443989845e-05 0)
(0.000756337025463 4.19479591936e-05 0)
(0.000726970914244 4.06603008972e-05 0)
(0.000698515585466 3.91398090146e-05 0)
(0.000671120340157 3.74434933522e-05 0)
(0.00064489755698 3.56246717163e-05 0)
(0.000619925406005 3.37312742894e-05 0)
(0.000596251469554 3.18048171322e-05 0)
(0.000573896879355 2.98799911061e-05 0)
(0.000552860624787 2.79847498655e-05 0)
(0.000533123759189 2.61407570927e-05 0)
(0.000514653311188 2.43640571081e-05 0)
(0.00049740578241 2.26658546283e-05 0)
(0.000481330174671 2.10533167765e-05 0)
(0.000466370536137 1.95303385029e-05 0)
(0.000452468047848 1.80982356962e-05 0)
(0.000439562691332 1.67563488765e-05 0)
(0.000427594547967 1.55025527131e-05 0)
(0.000416504783684 1.43336752636e-05 0)
(0.000406236371148 1.32458351184e-05 0)
(0.000396734597298 1.22347072479e-05 0)
(0.000387947398575 1.12957285048e-05 0)
(0.000379825560087 1.04242536805e-05 0)
(0.000372322808984 9.6156716569e-06 0)
(0.000365395826774 8.8654903752e-06 0)
(0.000359004200302 8.16939775729e-06 0)
(0.000353110326755 7.52330495471e-06 0)
(0.000347679284275 6.92337698853e-06 0)
(0.000342678676478 6.36605540845e-06 0)
(0.000338078456404 5.84807670374e-06 0)
(0.000333850732889 5.36649015062e-06 0)
(0.000329969560173 4.91867832212e-06 0)
(0.000326410709501 4.50238384481e-06 0)
(0.000323151419563 4.11574598938e-06 0)
(0.000320170120794 3.75735148869e-06 0)
(0.000317446126996 3.42630448922e-06 0)
(0.000314959286492 3.1223218186e-06 0)
(0.000312689584826 2.84586066876e-06 0)
(0.000310616692787 2.59828706885e-06 0)
(0.000308719459617 2.38209339699e-06 0)
(0.000306975365747 2.20117055206e-06 0)
(0.000305359980852 2.06112915009e-06 0)
(0.000303846536944 1.96963170218e-06 0)
(0.000302405852378 1.93660809145e-06 0)
(0.000301007083291 1.97398455195e-06 0)
(0.000299620207427 2.09388357834e-06 0)
(0.000298221832109 2.30229793143e-06 0)
(0.000296805625124 2.57883201308e-06 0)
(0.000295390169479 2.81714210115e-06 0)
(0.00122193284817 0.000221273581249 0)
(0.00125342413425 0.000382637316847 0)
(0.0012511697699 0.000395988627297 0)
(0.00121360961026 0.000356008501495 0)
(0.00115576756455 0.000304060096233 0)
(0.00109004488401 0.000254650349138 0)
(0.00102391123574 0.000211935369217 0)
(0.000961323169148 0.000176330392161 0)
(0.000904102197814 0.000147038729869 0)
(0.000852865594047 0.00012299610206 0)
(0.000807591275161 0.000103200159491 0)
(0.000767943911689 8.68040997593e-05 0)
(0.000733456654945 7.31236696385e-05 0)
(0.000703628814385 6.16161594343e-05 0)
(0.000677975794721 5.18537193828e-05 0)
(0.000656052490957 4.34988163957e-05 0)
(0.000637462286359 3.62839601799e-05 0)
(0.000621858512499 2.99957257339e-05 0)
(0.000608942190956 2.44624345284e-05 0)
(0.000598458146635 1.95447455391e-05 0)
(0.000590190607012 1.51284865446e-05 0)
(0.00058395885637 1.11191843695e-05 0)
(0.000579613212944 7.43787556485e-06 0)
(0.000577031433544 4.01788249568e-06 0)
(0.000576115563726 8.02320072818e-07 0)
(0.000576789207855 -2.25783990129e-06 0)
(0.000578995170206 -5.20526512866e-06 0)
(0.000582693414467 -8.07743050402e-06 0)
(0.000587859287143 -1.09075185074e-05 0)
(0.000594481944536 -1.37250905245e-05 0)
(0.000602562925222 -1.65565644367e-05 0)
(0.000612114810691 -1.9425518353e-05 0)
(0.000623159915366 -2.23528308917e-05 0)
(0.000635728944801 -2.53566596386e-05 0)
(0.000649859557399 -2.84522539235e-05 0)
(0.000665594760726 -3.16515927351e-05 0)
(0.000682981069057 -3.49628370499e-05 0)
(0.000702066345055 -3.83895855583e-05 0)
(0.000722897246841 -4.19299283053e-05 0)
(0.000745516204068 -4.55753022277e-05 0)
(0.000769957855471 -4.93091713316e-05 0)
(0.000796244898938 -5.31055804339e-05 0)
(0.000824383337 -5.6927669705e-05 0)
(0.000854357149483 -6.07262831887e-05 0)
(0.000886122493492 -6.44388579284e-05 0)
(0.00091960161944 -6.79888287238e-05 0)
(0.000954676796246 -7.1285816423e-05 0)
(0.000991184648641 -7.42268617152e-05 0)
(0.00102891140588 -7.66989057588e-05 0)
(0.0010675896182 -7.85825874737e-05 0)
(0.00110689688689 -7.97572367856e-05 0)
(0.00114645705563 -8.01067261718e-05 0)
(0.00118584412542 -7.95256689237e-05 0)
(0.00122458891412 -7.79253897956e-05 0)
(0.00126218824322 -7.5239189044e-05 0)
(0.00129811626467 -7.14266442586e-05 0)
(0.00133183747744 -6.64769531119e-05 0)
(0.00136282101326 -6.04114904442e-05 0)
(0.00139055583786 -5.32857837867e-05 0)
(0.00141456657091 -4.51910252124e-05 0)
(0.00143442965754 -3.62550198667e-05 0)
(0.00144978955422 -2.66419136307e-05 0)
(0.00146037419666 -1.65490765018e-05 0)
(0.00146600814854 -6.19891873735e-06 0)
(0.00146662093308 4.1753968718e-06 0)
(0.00146224813016 1.43482468561e-05 0)
(0.00145302442344 2.41188312681e-05 0)
(0.00143917016584 3.33224525037e-05 0)
(0.00142097479582 4.18333212436e-05 0)
(0.00139878063411 4.95601872038e-05 0)
(0.00137296930835 5.64386132838e-05 0)
(0.00134395128412 6.24236923326e-05 0)
(0.00131215773641 6.74853251935e-05 0)
(0.00127803359363 7.16064079128e-05 0)
(0.0012420307558 7.4783249046e-05 0)
(0.00120460087037 7.70271883673e-05 0)
(0.00116618745658 7.836637151e-05 0)
(0.00112721754457 7.88467803934e-05 0)
(0.00108809329683 7.85318894072e-05 0)
(0.00104918425678 7.75006892205e-05 0)
(0.00101082088914 7.58442141996e-05 0)
(0.000973289944943 7.36610335427e-05 0)
(0.000936831947633 7.10523398575e-05 0)
(0.00090164082457 6.81172728416e-05 0)
(0.000867865467525 6.49489783041e-05 0)
(0.000835612839925 6.16316953259e-05 0)
(0.000804952172055 5.82389519745e-05 0)
(0.000775919787033 5.48327848979e-05 0)
(0.000748524156555 5.14637957997e-05 0)
(0.000722750869854 4.81718188821e-05 0)
(0.000698567290801 4.49869781072e-05 0)
(0.000675926762132 4.19309467672e-05 0)
(0.000654772285262 3.90182646329e-05 0)
(0.000635039656582 3.62576127547e-05 0)
(0.000616660077566 3.36529830475e-05 0)
(0.000599562278887 3.12047103778e-05 0)
(0.00058367421117 2.89103553314e-05 0)
(0.000568924359751 2.67654408303e-05 0)
(0.000555242740495 2.47640533789e-05 0)
(0.000542561630148 2.2899324906e-05 0)
(0.000530816079372 2.11638119123e-05 0)
(0.000519944250473 1.9549789243e-05 0)
(0.000509887615619 1.80494738315e-05 0)
(0.000500591045332 1.66551928561e-05 0)
(0.000492002811598 1.53595082022e-05 0)
(0.000484074524996 1.41553081145e-05 0)
(0.000476761020989 1.30358746803e-05 0)
(0.000470020206752 1.19949351834e-05 0)
(0.000463812876704 1.10267037029e-05 0)
(0.000458102502133 1.01259192525e-05 0)
(0.000452854997887 9.2878856924e-06 0)
(0.000448038467097 8.50851906646e-06 0)
(0.000443622923198 7.78440747327e-06 0)
(0.000439579987326 7.11288936066e-06 0)
(0.00043588255857 6.49215584102e-06 0)
(0.000432504455029 5.92138323594e-06 0)
(0.000429420025889 5.40090094472e-06 0)
(0.000426603739886 4.93239798946e-06 0)
(0.000424029765911 4.51916516723e-06 0)
(0.000421671580266 4.16635636775e-06 0)
(0.000419501667878 3.88122136157e-06 0)
(0.000417491439444 3.67319538043e-06 0)
(0.000415611573036 3.5535818019e-06 0)
(0.000413833111473 3.53423070764e-06 0)
(0.000412129772426 3.62384436445e-06 0)
(0.000410481782239 3.81869751225e-06 0)
(0.000408879854778 4.08056429062e-06 0)
(0.000407320037525 4.29068182104e-06 0)
(0.00121694540731 0.000182395330531 0)
(0.00124915027246 0.000357819427407 0)
(0.00126583693035 0.000406374235017 0)
(0.00125619147769 0.000392828516269 0)
(0.00122598814229 0.000355285471531 0)
(0.00118353424136 0.000311601563839 0)
(0.00113537597013 0.000269276082662 0)
(0.00108588486137 0.000231068863033 0)
(0.00103774512988 0.000197660971167 0)
(0.000992485314567 0.000168870289588 0)
(0.000950886890016 0.000144198725551 0)
(0.000913266810038 0.000123072987718 0)
(0.000879663934641 0.000104944924814 0)
(0.000849958756107 8.93279347794e-05 0)
(0.000823948759464 7.5804972202e-05 0)
(0.00080139495103 6.40246880472e-05 0)
(0.000782049931288 5.36933255293e-05 0)
(0.000765674293527 4.45657850116e-05 0)
(0.00075204572173 3.64372818833e-05 0)
(0.000740963582706 2.91360950353e-05 0)
(0.000732250785801 2.25174872031e-05 0)
(0.000725754027463 1.64587063394e-05 0)
(0.000721343118631 1.08549194049e-05 0)
(0.000718909825811 5.61592420669e-06 0)
(0.000718366486605 6.63500364202e-07 0)
(0.000719644551494 -4.07071672252e-06 0)
(0.000722693132304 -8.64691960637e-06 0)
(0.00072747760176 -1.31184786354e-05 0)
(0.000733978256301 -1.75329873619e-05 0)
(0.00074218902767 -2.1933041179e-05 0)
(0.000752116220963 -2.63567795688e-05 0)
(0.000763777246104 -3.08382067504e-05 0)
(0.000777199300757 -3.54072958719e-05 0)
(0.00079241795488 -4.008987337e-05 0)
(0.000809475579682 -4.49072737774e-05 0)
(0.000828419556787 -4.98757504037e-05 0)
(0.000849300197012 -5.50056257496e-05 0)
(0.000872168293215 -6.03001673437e-05 0)
(0.0008970722292 -6.57541827345e-05 0)
(0.000924054568624 -7.13523426732e-05 0)
(0.000953148056546 -7.70672677722e-05 0)
(0.000984370985037 -8.28574523364e-05 0)
(0.00101772190684 -8.86651523162e-05 0)
(0.00105317373178 -9.44144302855e-05 0)
(0.00109066731269 -0.000100009625034 0)
(0.00113010472319 -0.00010533458367 0)
(0.00117134254495 -0.000110253041309 0)
(0.00121418560801 -0.000114610528558 0)
(0.00125838174288 -0.000118238101772 0)
(0.00130361817867 -0.000120958004335 0)
(0.00134952021951 -0.000122591087985 0)
(0.00139565272492 -0.000122965501422 0)
(0.00144152470129 -0.000121925886254 0)
(0.00148659701756 -0.000119342218735 0)
(0.0015302929628 -0.000115117571895 0)
(0.00157201115667 -0.000109194412148 0)
(0.00161114026022 -0.000101559437257 0)
(0.00164707499296 -9.22472136315e-05 0)
(0.00167923305943 -8.13428965445e-05 0)
(0.00170707266591 -6.89842060396e-05 0)
(0.00173011039723 -5.53626231088e-05 0)
(0.00174793928859 -4.07230790684e-05 0)
(0.00176024658506 -2.5359847005e-05 0)
(0.00176682948437 -9.60501392332e-06 0)
(0.00176760562415 6.19253557071e-06 0)
(0.00176261485832 2.16946278436e-05 0)
(0.0017520109844 3.65999666101e-05 0)
(0.00173604545018 5.06610317351e-05 0)
(0.0017150475204 6.3687954303e-05 0)
(0.00168940551742 7.55416237138e-05 0)
(0.00165955179759 8.61221221516e-05 0)
(0.00162595165973 9.53582425316e-05 0)
(0.00158909488016 0.00010320099849 0)
(0.00154948830814 0.000109621346673 0)
(0.00150764836353 0.000114610992565 0)
(0.00146409280449 0.000118184793018 0)
(0.00141933160141 0.000120383292276 0)
(0.00137385716638 0.000121274120729 0)
(0.00132813452475 0.000120951358402 0)
(0.00128259221275 0.000119532498249 0)
(0.00123761469574 0.000117153221658 0)
(0.00119353693144 0.000113960671932 0)
(0.00115064140956 0.000110106163044 0)
(0.00110915767171 0.000105738257371 0)
(0.00106926403523 0.000100996937861 0)
(0.00103109106123 9.60092909883e-05 0)
(0.000994726232764 9.08868086587e-05 0)
(0.000960219324138 8.57241796182e-05 0)
(0.000927588016269 8.05992983496e-05 0)
(0.000896823413265 7.55741656112e-05 0)
(0.00086789521901 7.06963644827e-05 0)
(0.000840756424507 6.60008432364e-05 0)
(0.000815347430857 6.15117979705e-05 0)
(0.00079159958768 5.72445099929e-05 0)
(0.00076943816451 5.32070460421e-05 0)
(0.000748784796283 4.94017716208e-05 0)
(0.000729559456928 4.58266577973e-05 0)
(0.000711682020217 4.24763825036e-05 0)
(0.000695073467065 3.93432395994e-05 0)
(0.000679656795191 3.64178760025e-05 0)
(0.000665357681942 3.36898797022e-05 0)
(0.000652104945122 3.11482419685e-05 0)
(0.000639830840449 2.8781715542e-05 0)
(0.000628471228297 2.65790887844e-05 0)
(0.000617965636781 2.45293931916e-05 0)
(0.000608257243238 2.26220595782e-05 0)
(0.000599292791683 2.08470358908e-05 0)
(0.000591022459974 1.91948779939e-05 0)
(0.000583399687039 1.76568230576e-05 0)
(0.000576380967718 1.62248542189e-05 0)
(0.00056992562036 1.48917641334e-05 0)
(0.000563995530437 1.36512246387e-05 0)
(0.000558554872 1.24978691467e-05 0)
(0.000553569808001 1.14273941839e-05 0)
(0.000549008170492 1.04366857299e-05 0)
(0.000544839122827 9.52397491706e-06 0)
(0.000541032808839 8.68902477855e-06 0)
(0.000537559999289 7.93334422167e-06 0)
(0.00053439175508 7.26041387685e-06 0)
(0.000531499141286 6.67588623582e-06 0)
(0.000528853048122 6.18767872149e-06 0)
(0.000526424205802 5.80579315235e-06 0)
(0.000524183517053 5.54152639907e-06 0)
(0.000522102854719 5.40540007207e-06 0)
(0.000520156401459 5.40246018217e-06 0)
(0.000518322150983 5.52231792873e-06 0)
(0.000516581422646 5.71959759532e-06 0)
(0.000514910229421 5.88265842337e-06 0)
(0.0012128682524 0.000152581674193 0)
(0.00124183005154 0.00032646642746 0)
(0.00126606074569 0.000396809891546 0)
(0.00127261844 0.000405480625289 0)
(0.00126175380946 0.000383701334414 0)
(0.00123810065898 0.000349292757892 0)
(0.00120648910615 0.000311354718303 0)
(0.0011707460472 0.00027422440108 0)
(0.00113360233896 0.000239788879218 0)
(0.0010968953008 0.000208709241769 0)
(0.00106180241177 0.000181051094113 0)
(0.0010290365496 0.000156606568876 0)
(0.000998993199744 0.000135057576894 0)
(0.000971856514913 0.000116057154463 0)
(0.000947673867305 9.92684055813e-05 0)
(0.000926407418322 8.43815212963e-05 0)
(0.000907969340245 7.11195996818e-05 0)
(0.000892245582076 5.9238916701e-05 0)
(0.00087911168891 4.85266253417e-05 0)
(0.000868443152301 3.87974375942e-05 0)
(0.000860122022779 2.98900815643e-05 0)
(0.000854040985347 2.16639182497e-05 0)
(0.000850105725972 1.39958860937e-05 0)
(0.000848236156687 6.77782978114e-06 0)
(0.000848366885654 -8.57851816517e-08 0)
(0.000850447189314 -6.67979044365e-06 0)
(0.000854440657174 -1.30798859188e-05 0)
(0.000860324626972 -1.93539437189e-05 0)
(0.000868089474629 -2.55630175218e-05 0)
(0.000877737787219 -3.17620890351e-05 0)
(0.000889283431418 -3.80005643582e-05 0)
(0.000902750510041 -4.43225220297e-05 0)
(0.000918172184419 -5.07667071018e-05 0)
(0.000935589327797 -5.73662582692e-05 0)
(0.000955048963976 -6.41481495669e-05 0)
(0.000976602435617 -7.11323240177e-05 0)
(0.00100030323803 -7.83304961961e-05 0)
(0.0010262044474 -8.57446044029e-05 0)
(0.00105435566813 -9.33649045004e-05 0)
(0.00108479942391 -0.000101167718039 0)
(0.001117566924 -0.000109112881682 0)
(0.00115267315208 -0.00011714099508 0)
(0.0011901112561 -0.000125170633719 0)
(0.00122984626637 -0.000133095780028 0)
(0.00127180824266 -0.000140783825378 0)
(0.00131588505138 -0.000148074591684 0)
(0.00136191510124 -0.000154780889626 0)
(0.00140968051074 -0.000160691132401 0)
(0.00145890132252 -0.000165574418503 0)
(0.00150923148222 -0.000169188250833 0)
(0.00156025731627 -0.000171288677593 0)
(0.00161149913096 -0.000171642186535 0)
(0.00166241629901 -0.00017003829381 0)
(0.00171241583679 -0.000166301607764 0)
(0.00176086410476 -0.000160302334055 0)
(0.00180710100961 -0.000151964683885 0)
(0.00185045603352 -0.000141273227696 0)
(0.00189026553169 -0.000128277591219 0)
(0.00192589088674 -0.000113095883212 0)
(0.00195673719837 -9.59170891619e-05 0)
(0.00198227233956 -7.70025762909e-05 0)
(0.0020020465156 -5.66861719491e-05 0)
(0.00201571231268 -3.5369843355e-05 0)
(0.00202304356705 -1.35091852705e-05 0)
(0.00202394874322 8.41535831371e-06 0)
(0.00201847369734 2.99375663206e-05 0)
(0.00200679162541 5.0642907564e-05 0)
(0.00198918293162 7.01922390933e-05 0)
(0.00196601126354 8.83262549123e-05 0)
(0.00193770193757 0.000104854554885 0)
(0.00190472591147 0.000119638835195 0)
(0.00186758890858 0.000132578566307 0)
(0.00182682349039 0.000143602768426 0)
(0.00178298193738 0.000152667599377 0)
(0.0017366285965 0.000159757926115 0)
(0.00168833106576 0.000164890854352 0)
(0.00163865010944 0.000168119300699 0)
(0.00158812865241 0.000169533920551 0)
(0.00153728059067 0.000169262184248 0)
(0.00148658038345 0.000167464120089 0)
(0.00143645439145 0.000164325043213 0)
(0.00138727470212 0.000160046243949 0)
(0.00133935581243 0.000154834947554 0)
(0.00129295413934 0.00014889483316 0)
(0.00124826999827 0.000142418092711 0)
(0.00120545149103 0.000135579573483 0)
(0.00116459967947 0.000128533124664 0)
(0.00112577446002 0.000121409951869 0)
(0.00108900065444 0.000114318600878 0)
(0.00105427395347 0.000107346128998 0)
(0.00102156646862 0.000100560042328 0)
(0.000990831746531 9.40106439485e-05 0)
(0.00096200917784 8.77335211404e-05 0)
(0.000935027787349 8.17519814219e-05 0)
(0.000909809428871 7.60793164732e-05 0)