/*--------------------------------*- C++ -*----------------------------------*\
  =========                 |
  \\      /  F ield         | OpenFOAM: The Open Source CFD Toolbox
   \\    /   O peration     | Website:  https://openfoam.org
    \\  /    A nd           | Version:  7
     \\/     M anipulation  |
\*---------------------------------------------------------------------------*/
FoamFile
{
    version     2.0;
    format      ascii;
    class       volScalarField;
    location    "420";
    object      Ci;
}
// * * * * * * * * * * * * * * * * * * * * * * * * * * * * * * * * * * * * * //

dimensions      [0 -3 0 0 1 0 0];

internalField   nonuniform List<scalar> 
8192
(
10.0000000108
9.99999996288
9.99999990383
9.99999984446
9.99999979263
9.99999974943
9.99999971581
9.99999969149
9.99999967748
9.99999967356
9.99999968114
9.9999997001
9.99999973236
9.99999977785
9.99999983876
9.99999991481
10.0000000082
10.0000001184
10.0000002474
10.0000003942
10.0000005608
10.0000007455
10.0000009499
10.0000011715
10.0000014112
10.0000016654
10.0000019344
10.0000022131
10.0000025007
10.0000027908
10.0000030813
10.0000033644
10.0000036372
10.0000038905
10.0000041207
10.0000043181
10.0000044788
10.0000045932
10.000004658
10.0000046645
10.0000046109
10.0000044898
10.0000043013
10.0000040401
10.0000037082
10.000003302
10.0000028257
10.0000022775
10.0000016639
10.0000009853
10.0000002519
9.99999946725
9.99999864621
9.99999779627
9.9999969367
9.99999607772
9.99999524023
9.9999944091
9.9999936177
9.99999288368
9.99999223407
9.99999167987
9.99999124045
9.9999909159
9.9999907124
9.99999061503
9.99999061577
9.99999068955
9.99999082445
9.99999099784
9.99999120429
9.99999140186
9.99999158986
9.99999176005
9.99999191605
9.99999205067
9.99999216871
9.99999226563
9.99999234884
9.99999241672
9.99999247849
9.99999253383
9.99999259223
9.99999265349
9.99999272672
9.99999281148
9.99999291646
9.99999304078
9.99999319247
9.99999336977
9.99999357964
9.99999381896
9.99999409322
9.99999439769
9.99999473649
9.99999510371
9.99999550359
9.99999593383
9.99999640703
9.99999691787
9.99999746793
9.99999804754
9.99999865673
9.99999928519
9.99999993283
10.0000005893
10.0000012548
10.0000019191
10.0000025826
10.0000032353
10.0000038779
10.0000045008
10.0000051048
10.0000056805
10.0000062289
10.0000067406
10.0000072166
10.0000076471
10.0000080329
10.0000083638
10.0000086409
10.0000088551
10.0000090104
10.000009103
10.0000091432
10.0000091343
10.0000090863
10.0000090228
9.99999998955
9.99999993707
9.99999988773
9.99999984877
9.9999998193
9.99999979696
9.99999978128
9.99999977213
9.99999977077
9.99999977757
9.99999979415
9.99999982093
9.99999985982
9.99999991121
9.99999997718
10.0000000579
10.0000001555
10.0000002698
10.0000004028
10.0000005538
10.0000007246
10.000000914
10.0000011233
10.0000013505
10.0000015962
10.0000018573
10.0000021336
10.0000024207
10.0000027172
10.0000030172
10.0000033183
10.0000036129
10.0000038975
10.0000041633
10.0000044061
10.000004616
10.0000047887
10.0000049144
10.0000049891
10.0000050041
10.0000049566
10.0000048396
10.0000046523
10.0000043895
10.0000040525
10.0000036382
10.00000315
10.0000025865
10.0000019539
10.0000012533
10.0000004943
9.99999968156
9.99999882913
9.99999794554
9.99999704905
9.99999615023
9.99999527053
9.99999441679
9.99999360689
9.99999285044
9.99999216552
9.99999155924
9.99999104471
9.99999062133
9.99999029239
9.99999004683
9.99998987878
9.99998977167
9.99998971897
9.99998970735
9.99998973703
9.99998979634
9.99998988378
9.99998999118
9.99999011902
9.99999026005
9.99999041499
9.99999057744
9.9999907491
9.99999092496
9.99999110777
9.99999129356
9.99999148582
9.9999916815
9.99999188494
9.99999209413
9.99999231435
9.99999254442
9.99999279021
9.99999305075
9.99999333179
9.99999363178
9.99999395564
9.99999430068
9.99999467065
9.99999506167
9.99999547664
9.99999591672
9.99999640604
9.99999693254
9.99999749407
9.99999808195
9.99999869517
9.99999932527
9.9999999713
10.0000006247
10.0000012847
10.0000019427
10.000002598
10.0000032425
10.0000038755
10.0000044891
10.0000050829
10.0000056492
10.0000061877
10.0000066907
10.0000071579
10.0000075811
10.0000079601
10.0000082861
10.0000085589
10.0000087709
10.000008924
10.0000090143
10.0000090459
10.0000090282
10.000008976
10.0000088733
9.9999999912
9.99999995261
9.99999992201
9.99999990233
9.99999989419
9.99999989661
9.99999991014
9.99999993306
9.99999996557
10.0000000066
10.0000000574
10.0000001177
10.0000001897
10.0000002734
10.0000003712
10.000000483
10.0000006115
10.0000007558
10.0000009185
10.0000010984
10.0000012976
10.0000015142
10.00000175
10.0000020022
10.000002272
10.0000025553
10.0000028529
10.0000031591
10.0000034742
10.0000037906
10.0000041084
10.0000044182
10.0000047199
10.0000050023
10.0000052662
10.0000054991
10.0000057025
10.0000058643
10.0000059865
10.0000060587
10.0000060832
10.0000060518
10.0000059671
10.0000058227
10.0000056212
10.0000053573
10.0000050339
10.0000046459
10.0000041974
10.0000036842
10.0000031126
10.0000024806
10.000001798
10.0000010657
10.0000002978
9.99999949744
9.99999868143
9.99999785411
9.99999703262
9.9999962212
9.99999543708
9.99999468346
9.99999397526
9.99999331156
9.99999270156
9.99999213801
9.99999162405
9.99999114905
9.99999071606
9.99999031789
9.99998996224
9.99998964625
9.99998937888
9.99998915778
9.99998899094
9.99998887503
9.99998881633
9.99998881032
9.9999888618
9.99998896494
9.99998912264
9.9999893272
9.99998957958
9.99998987071
9.99999020068
9.99999056032
9.99999095018
9.99999136197
9.99999179746
9.99999224955
9.99999272115
9.99999320597
9.99999370759
9.99999421992
9.99999474667
9.99999528154
9.99999582809
9.9999963801
9.99999694787
9.99999752804
9.99999812551
9.99999873361
9.99999935528
9.99999998243
10.0000006171
10.0000012506
10.0000018846
10.0000025102
10.0000031291
10.0000037323
10.0000043217
10.0000048884
10.0000054344
10.0000059509
10.00000644
10.0000068929
10.0000073117
10.0000076872
10.0000080211
10.000008304
10.0000085372
10.0000087121
10.0000088321
10.0000088927
10.0000088913
10.0000088328
10.0000087444
10.0000085001
9.99999999126
9.99999996778
9.99999994621
9.99999994582
9.99999996453
9.99999999717
10.0000000397
10.0000000948
10.0000001629
10.0000002433
10.0000003367
10.0000004429
10.0000005629
10.0000006969
10.0000008463
10.000001011
10.0000011926
10.0000013907
10.0000016068
10.0000018401
10.0000020916
10.0000023601
10.0000026463
10.000002948
10.0000032657
10.0000035958
10.0000039393
10.00000429
10.0000046504
10.0000050109
10.0000053767
10.0000057334
10.0000060906
10.0000064285
10.0000067616
10.0000070654
10.0000073583
10.0000076141
10.0000078512
10.0000080465
10.0000082138
10.0000083363
10.000008421
10.0000084573
10.0000084465
10.0000083817
10.0000082613
10.00000808
10.0000078365
10.0000075266
10.0000071511
10.0000067085
10.000006203
10.0000056367
10.0000050172
10.0000043494
10.0000036432
10.0000029049
10.0000021448
10.0000013694
10.0000005891
9.99999980952
9.9999990394
9.99999828119
9.99999753914
9.99999681062
9.99999609516
9.99999538755
9.99999468844
9.99999399699
9.99999331943
9.99999265948
9.99999202605
9.99999142414
9.99999086323
9.99999034851
9.99998988949
9.99998949153
9.99998916398
9.9999889113
9.99998874073
9.99998865363
9.99998865342
9.99998873754
9.99998890555
9.99998915154
9.99998947229
9.99998985978
9.99999030934
9.99999081208
9.99999136298
9.99999195315
9.99999257787
9.99999322876
9.99999390172
9.99999458901
9.99999528741
9.99999598961
9.99999669454
9.99999739813
9.9999981008
9.99999879884
9.99999949242
10.0000001773
10.0000008532
10.0000015155
10.0000021635
10.0000027924
10.0000034017
10.0000039866
10.0000045465
10.0000050769
10.0000055772
10.0000060431
10.0000064741
10.0000068658
10.0000072178
10.0000075255
10.0000077882
10.0000080009
10.0000081622
10.0000082678
10.0000083157
10.0000083083
10.0000082406
10.0000081197
10.0000079841
10.0000075739
9.99999999789
9.99999998738
9.9999999849
10.0000000014
10.0000000403
10.0000000959
10.0000001651
10.0000002423
10.0000003346
10.0000004427
10.0000005679
10.0000007104
10.0000008714
10.0000010508
10.0000012496
10.0000014674
10.000001705
10.0000019617
10.0000022382
10.0000025331
10.0000028471
10.000003178
10.000003527
10.00000389
10.00000427
10.0000046593
10.0000050647
10.0000054721
10.0000058959
10.0000063106
10.0000067446
10.0000071541
10.0000075883
10.0000079794
10.0000084014
10.0000087622
10.0000091561
10.0000094766
10.0000098232
10.0000100942
10.000010373
10.0000105821
10.0000107744
10.0000109039
10.0000109934
10.0000110218
10.0000109939
10.0000109013
10.0000107432
10.0000105164
10.0000102215
10.0000098584
10.0000094315
10.0000089443
10.0000084048
10.000007819
10.0000071967
10.0000065448
10.0000058728
10.000005187
10.0000044963
10.0000038057
10.0000031214
10.0000024444
10.0000017758
10.0000011102
10.0000004427
9.99999976468
9.99999907253
9.99999836272
9.99999763792
9.99999689984
9.99999615443
9.99999540558
9.99999466107
9.99999392676
9.99999321267
9.99999252742
9.99999188357
9.99999129142
9.99999076368
9.99999030934
9.99998993855
9.99998965695
9.99998947079
9.99998938157
9.99998939132
9.99998949741
9.99998969798
9.99998998687
9.99999035917
9.99999080619
9.99999132108
9.99999189371
9.99999251639
9.99999317863
9.99999387289
9.99999458904
9.99999532042
9.99999605858
9.99999679882
9.99999753446
9.99999826225
9.9999989766
9.99999967512
10.0000003529
10.0000010082
10.0000016365
10.0000022367
10.0000028049
10.0000033401
10.0000038388
10.0000043006
10.0000047222
10.0000051033
10.0000054408
10.0000057346
10.0000059816
10.0000061813
10.0000063308
10.000006428
10.0000064722
10.0000064564
10.0000063918
10.0000062568
10.000006097
10.00000588
10.0000055493
9.99999999683
9.9999999936
9.99999999526
10.000000028
10.0000000898
10.0000001715
10.0000002665
10.0000003726
10.0000004856
10.0000006148
10.0000007624
10.0000009298
10.0000011187
10.0000013295
10.0000015631
10.0000018193
10.0000020985
10.0000023995
10.0000027229
10.0000030661
10.0000034306
10.0000038115
10.0000042128
10.0000046248
10.0000050583
10.0000054926
10.0000059532
10.000006398
10.0000068818
10.0000073219
10.0000078252
10.0000082426
10.0000087613
10.000009138
10.000009663
10.0000099859
10.0000104977
10.0000107634
10.0000112291
10.0000114427
10.000011822
10.0000119866
10.0000122451
10.0000123497
10.0000124697
10.0000124873
10.0000124654
10.0000123663
10.0000122032
10.0000119693
10.000011667
10.0000112981
10.0000108675
10.0000103813
10.0000098482
10.0000092774
10.0000086794
10.0000080636
10.0000074395
10.0000068157
10.0000062006
10.0000056011
10.0000050226
10.0000044673
10.0000039342
10.0000034172
10.0000029066
10.0000023906
10.0000018601
10.0000013082
10.0000007326
10.0000001317
9.9999995056
9.99999885405
9.99999817928
9.9999974832
9.99999677147
9.9999960504
9.99999533047
9.99999462205
9.99999393818
9.99999329026
9.9999926911
9.99999215099
9.99999168084
9.99999128835
9.99999098129
9.99999076377
9.99999063958
9.99999060869
9.9999906707
9.99999082164
9.99999105741
9.99999137084
9.9999917552
9.99999220127
9.9999927009
9.99999324405
9.99999382227
9.99999442583
9.99999504711
9.99999567758
9.99999631097
9.99999694013
9.99999756014
9.99999816511
9.99999875134
9.99999931403
9.99999985049
10.0000003568
10.0000008312
10.0000012703
10.000001673
10.0000020366
10.0000023602
10.0000026417
10.00000288
10.0000030738
10.0000032211
10.0000033221
10.0000033712
10.000003375
10.0000033146
10.0000032238
10.0000030363
10.0000028868
10.0000025491
10.0000024501
10.000000002
10.0000000051
10.0000000187
10.0000000612
10.0000001367
10.0000002362
10.0000003514
10.0000004781
10.0000006151
10.000000761
10.0000009252
10.0000011101
10.0000013177
10.0000015488
10.0000018046
10.0000020847
10.0000023897
10.0000027176
10.0000030698
10.0000034414
10.0000038371
10.0000042455
10.0000046801
10.0000051154
10.0000055853
10.0000060332
10.0000065378
10.0000069781
10.0000075222
10.000007926
10.0000085215
10.0000088519
10.0000095146
10.0000097325
10.0000104717
10.0000105506
10.0000113497
10.0000112961
10.0000120947
10.0000119574
10.0000126555
10.0000125052
10.0000130013
10.0000128827
10.0000131261
10.0000130207
10.0000130277
10.0000128699
10.0000126873
10.0000124172
10.0000120819
10.0000116807
10.0000112183
10.0000107043
10.0000101478
10.0000095611
10.0000089554
10.0000083418
10.0000077306
10.0000071313
10.0000065533
10.0000060048
10.0000054917
10.0000050178
10.0000045827
10.00000418
10.0000037981
10.0000034236
10.0000030452
10.0000026555
10.0000022496
10.0000018252
10.0000013776
10.0000009057
10.0000004022
9.99999986603
9.99999929851
9.99999870281
9.99999808486
9.99999745219
9.99999681358
9.99999617848
9.99999555643
9.99999495785
9.99999439057
9.99999386479
9.99999339021
9.99999297521
9.99999262698
9.99999235074
9.99999215015
9.99999202667
9.99999198012
9.99999200829
9.99999210761
9.9999922729
9.99999249817
9.99999277638
9.99999310019
9.99999346183
9.9999938537
9.99999426822
9.99999469838
9.9999951374
9.99999557923
9.99999601814
9.99999644917
9.99999686768
9.99999726972
9.99999765163
9.99999801029
9.99999834286
9.99999864684
9.99999892006
9.99999916033
9.99999936618
9.99999953515
9.99999966712
9.99999975757
9.99999981041
9.99999981322
9.99999978424
9.99999968339
9.99999958221
9.99999934518
9.99999923164
9.99999877442
9.99999888083
9.9999999982
10.0000000034
10.0000000147
10.0000000653
10.0000001557
10.0000002738
10.0000004097
10.0000005572
10.0000007158
10.0000008833
10.000001064
10.0000012646
10.0000014879
10.0000017346
10.0000020066
10.0000023026
10.0000026245
10.000002968
10.0000033379
10.0000037231
10.0000041375
10.0000045548
10.0000050112
10.0000054455
10.0000059456
10.0000063731
10.0000069285
10.0000073106
10.0000079499
10.000008226
10.0000090018
10.0000090846
10.0000100729
10.0000098563
10.0000111365
10.0000105291
10.0000121347
10.0000111217
10.0000129716
10.0000116764
10.0000135369
10.0000122193
10.0000137635
10.0000127038
10.000013675
10.0000129959
10.0000133557
10.0000129486
10.0000128548
10.000012503
10.0000121491
10.0000117099
10.0000112102
10.0000106639
10.0000100772
10.0000094675
10.000008843
10.0000082176
10.0000076012
10.0000070038
10.0000064357
10.0000059066
10.0000054231
10.0000049902
10.0000046089
10.0000042728
10.0000039687
10.0000036811
10.0000033994
10.0000031148
10.0000028261
10.0000025265
10.0000022102
10.0000018744
10.0000015158
10.0000011305
10.0000007168
10.0000002745
9.99999980619
9.99999931551
9.99999880726
9.99999828621
9.99999775795
9.99999722861
9.99999670485
9.99999619386
9.99999570318
9.99999524085
9.99999481289
9.99999442615
9.99999408699
9.99999379948
9.99999356686
9.99999339004
9.99999326918
9.99999320237
9.9999931872
9.99999321962
9.99999329549
9.9999934095
9.99999355666
9.99999373121
9.99999392807
9.99999414163
9.99999436719
9.99999459968
9.999994835
9.99999506878
9.99999529757
9.99999551765
9.99999572615
9.99999591995
9.9999960965
9.9999962533
9.99999638771
9.99999649824
9.99999658109
9.99999663731
9.99999665881
9.99999665444
9.99999660175
9.99999653494
9.99999638561
9.99999627066
9.99999597898
9.99999588928
9.99999533902
9.99999554477
10.0000000027
10.0000000133
10.0000000338
10.0000000871
10.0000001822
10.0000003097
10.0000004582
10.0000006211
10.000000795
10.0000009815
10.0000011772
10.0000013922
10.0000016296
10.00000189
10.0000021758
10.0000024843
10.0000028197
10.0000031733
10.0000035565
10.0000039474
10.0000043765
10.000004791
10.0000052682
10.0000056833
10.0000062212
10.000006597
10.0000072304
10.0000074957
10.0000082998
10.0000083318
10.0000094434
10.0000090467
10.0000106798
10.0000095825
10.0000120096
10.0000099122
10.0000133752
10.0000100831
10.0000146171
10.0000102451
10.0000154784
10.0000106043
10.0000157114
10.0000112658
10.0000152555
10.0000120557
10.0000143314
10.0000125654
10.0000132864
10.0000124621
10.0000122817
10.0000117489
10.0000112283
10.0000106577
10.0000100341
10.0000093986
10.0000087492
10.0000081101
10.0000074804
10.0000068727
10.000006301
10.0000057756
10.000005298
10.0000048693
10.0000044902
10.0000041604
10.0000038691
10.00000361
10.0000033697
10.0000031478
10.0000029263
10.0000027016
10.0000024696
10.0000022255
10.000001965
10.0000016847
10.0000013825
10.0000010583
10.0000007138
10.0000003514
9.99999997283
9.99999958012
9.99999917451
9.99999875849
9.9999983347
9.99999790721
9.9999974805
9.99999705981
9.99999665078
9.99999625862
9.99999588908
9.99999554603
9.99999523351
9.99999495479
9.99999471139
9.99999450422
9.99999433267
9.99999419582
9.99999409149
9.99999401754
9.99999397086
9.99999394869
9.9999939475
9.99999396437
9.99999399577
9.99999403888
9.99999409036
9.99999414765
9.99999420761
9.99999426797
9.99999432569
9.9999943788
9.99999442409
9.9999944601
9.99999448282
9.99999449218
9.99999448165
9.99999445539
9.99999439932
9.99999433034
9.99999421198
9.99999409885
9.99999388987
9.99999374911
9.99999339579
9.99999330317
9.99999268259
9.99999289519
9.99999999808
10.0000000106
10.0000000286
10.0000000862
10.0000001892
10.0000003276
10.0000004891
10.0000006668
10.0000008557
10.0000010582
10.0000012704
10.0000014996
10.0000017511
10.0000020245
10.0000023239
10.0000026436
10.0000029922
10.0000033538
10.0000037503
10.0000041433
10.0000045882
10.0000049942
10.0000054959
10.0000058821
10.0000064683
10.0000067734
10.0000075112
10.0000076189
10.00000865
10.0000083452
10.0000099375
10.0000088478
10.0000114541
10.0000089993
10.0000132828
10.0000086916
10.0000154386
10.0000079309
10.0000177512
10.0000069653
10.0000197655
10.0000063344
10.0000207799
10.0000066514
10.0000202001
10.0000081323
10.0000180936
10.0000101725
10.0000153613
10.0000116153
10.0000130569
10.0000117384
10.0000114574
10.0000108149
10.0000101339
10.0000094901
10.0000087999
10.0000081238
10.0000074609
10.0000068414
10.0000062772
10.0000057356
10.0000051479
10.000004475
10.0000037569
10.0000030867
10.0000025586
10.0000022166
10.0000020619
10.0000020325
10.0000020618
10.0000020965
10.0000021016
10.0000020585
10.0000019622
10.0000018157
10.0000016261
10.0000014021
10.0000011527
10.0000008849
10.0000006031
10.000000308
9.99999999957
9.99999967706
9.99999934133
9.99999899411
9.99999863932
9.99999828067
9.99999792335
9.99999757107
9.99999722834
9.99999689784
9.99999658301
9.99999628504
9.99999600525
9.99999574469
9.99999550375
9.99999528238
9.99999508013
9.99999489628
9.99999472982
9.99999457967
9.99999444452
9.9999943231
9.99999421399
9.99999411586
9.9999940272
9.99999394664
9.9999938725
9.99999380333
9.99999373708
9.99999367231
9.99999360616
9.99999353768
9.99999346227
9.99999338099
9.99999328494
9.99999318156
9.99999305054
9.99999291763
9.99999273161
9.99999256817
9.99999229465
9.99999211794
9.99999169963
9.99999158154
9.9999909018
9.99999106997
10.0000000027
10.0000000216
10.0000000491
10.0000001075
10.0000002105
10.0000003521
10.00000052
10.000000707
10.0000009068
10.000001121
10.0000013467
10.0000015885
10.0000018531
10.0000021386
10.0000024511
10.0000027816
10.0000031431
10.0000035127
10.0000039224
10.0000043183
10.0000047784
10.0000051784
10.0000057026
10.000006066
10.0000066943
10.0000069422
10.0000077701
10.0000077453
10.0000089781
10.0000083729
10.0000104186
10.0000086588
10.0000122623
10.0000083588
10.0000147467
10.0000071789
10.0000181038
10.0000049014
10.0000223766
10.000001651
10.0000271006
9.99999817742
10.0000310346
9.99999595975
10.000032374
9.99999663995
10.0000297646
10.0000006748
10.0000237695
10.0000062266
10.0000171514
10.000010148
10.0000126561
10.0000109354
10.0000104115
10.0000098485
10.0000089817
10.0000082775
10.0000076094
10.0000071433
10.0000065439
10.0000051648
10.0000023865
9.99999819909
9.99999341212
9.99998925716
9.99998674608
9.99998626205
9.99998753899
9.99998991892
9.99999268848
9.99999529799
9.99999743968
9.99999901613
10.0000000673
10.000000696
10.0000010153
10.0000011233
10.0000010966
10.0000009915
10.0000008474
10.0000006896
10.0000005305
10.000000371
10.0000002039
10.0000000173
9.99999980089
9.99999954853
9.99999926087
9.99999894337
9.99999860586
9.99999825828
9.99999791102
9.99999757088
9.99999724418
9.99999693183
9.99999663433
9.99999635156
9.99999608243
9.99999582609
9.99999558147
9.99999534812
9.99999512545
9.99999491341
9.99999471163
9.99999452007
9.9999943382
9.99999416572
9.99999400157
9.9999938451
9.99999369441
9.9999935487
9.99999340468
9.99999326223
9.99999311537
9.99999296692
9.99999280478
9.99999264066
9.9999924471
9.99999225983
9.99999201248
9.99999180177
9.99999146588
9.9999912495
9.99999076778
9.99999061276
9.99998987886
9.99998998375
9.99999999847
10.0000000192
10.000000046
10.0000001083
10.0000002161
10.0000003639
10.00000054
10.0000007367
10.0000009474
10.000001173
10.0000014105
10.0000016647
10.0000019422
10.0000022396
10.0000025648
10.0000029065
10.0000032803
10.0000036597
10.0000040807
10.0000044845
10.0000049545
10.0000053602
10.0000058928
10.0000062599
10.0000068958
10.0000071445
10.0000079839
10.0000079488
10.000009217
10.0000085544
10.0000107282
10.0000087459
10.0000127727
10.0000081547
10.0000157759
10.0000062251
10.0000203277
10.0000023026
10.0000270196
9.99999590618
10.000035946
9.99998733477
10.0000460111
9.99997841799
10.0000543323
9.99997276962
10.0000566279
9.99997450537
10.0000496182
9.99998484841
10.0000349007
9.99999893027
10.0000200189
10.0000083015
10.0000118853
10.0000103631
10.0000087905
10.0000087524
10.0000088442
10.0000085271
10.0000026394
9.99998572178
9.99995512425
9.99991466594
9.99987391585
9.99984360589
9.99983071172
9.99983616087
9.99985579273
9.99988320098
9.99991216569
9.99993821806
9.9999591088
9.99997442332
9.999984862
9.99999156458
9.99999565723
9.99999803508
9.99999931496
9.99999987758
9.99999995038
9.99999968702
9.99999922145
9.99999868285
9.99999818651
9.99999781334
9.99999759933
9.99999753522
9.99999758086
9.99999768072
9.99999778195
9.99999784285
9.9999978397
9.99999776373
9.99999762004
9.99999742043
9.99999718091
9.99999691464
9.99999663519
9.99999635308
9.99999607572
9.99999580782
9.99999555192
9.99999530897
9.99999507882
9.9999948607
9.99999465333
9.99999445538
9.99999426507
9.99999408106
9.99999390099
9.9999937239
9.99999354606
9.9999933679
9.9999931825
9.99999299444
9.99999278907
9.99999258245
9.99999234097
9.99999210992
9.99999180974
9.99999155611
9.99999116263
9.99999090585
9.99999036395
9.99999016783
9.9999893816
9.9999894224
10.0000000036
10.0000000302
10.0000000684
10.0000001319
10.0000002381
10.0000003856
10.0000005643
10.0000007661
10.0000009841
10.0000012182
10.0000014652
10.0000017305
10.0000020192
10.0000023282
10.0000026646
10.0000030182
10.0000034021
10.0000037943
10.0000042225
10.0000046417
10.0000051124
10.0000055408
10.00000606
10.0000064682
10.0000070611
10.0000073921
10.0000081285
10.0000082595
10.0000093117
10.0000089664
10.0000107366
10.0000092987
10.0000126813
10.000008832
10.0000156925
10.0000068014
10.0000207268
10.0000020316
10.0000291028
9.99999304755
10.0000421251
9.99997876076
10.0000601378
9.99995970193
10.0000811076
9.99993950142
10.0000992953
9.99992579805
10.0001052905
9.99992855186
10.0000902413
9.99995271782
10.0000561187
9.99998668732
10.0000243553
10.0000059779
10.0000087354
10.0000152123
10.0000145221
9.99998839506
9.99989281254
9.99970121643
9.99941759548
9.99909284771
9.99880476669
9.99862303554
9.99858246084
9.99867407005
9.99885895453
9.99908888133
9.99932042863
9.99952354858
9.99968401133
9.9998004296
9.9998790751
9.99992914637
9.99995962386
9.9999777729
9.99998877784
9.99999592568
10.000000992
10.0000046959
10.0000071618
10.0000083152
10.0000081478
10.000006828
10.000004685
10.0000021247
9.99999953518
9.9999972177
9.99999535685
9.99999402383
9.99999320085
9.99999281358
9.99999276004
9.99999293608
9.99999324612
9.99999361671
9.99999398764
9.99999432203
9.99999459827
9.99999480674
9.99999494596
9.99999501998
9.9999950357
9.99999500149
9.99999492567
9.99999481626
9.99999467981
9.9999945224
9.99999434762
9.99999415978
9.99999395883
9.99999374889
9.99999352458
9.99999329378
9.99999304095
9.99999278666
9.99999249283
9.99999221297
9.99999185711
9.99999155629
9.9999911046
9.99999080408
9.99999020331
9.99998996513
9.99998912641
9.99998911061
9.99999999985
10.0000000287
10.0000000667
10.0000001356
10.0000002456
10.0000003966
10.0000005802
10.000000788
10.0000010144
10.0000012559
10.0000015137
10.0000017903
10.0000020899
10.0000024107
10.0000027571
10.0000031235
10.0000035157
10.0000039231
10.0000043553
10.0000047954
10.0000052605
10.0000057231
10.0000062154
10.0000066883
10.0000072077
10.0000076721
10.000008234
10.0000086468
10.0000093122
10.0000095547
10.0000105131
10.0000102525
10.0000120407
10.0000103903
10.0000143988
10.000009207
10.0000186851
10.0000051804
10.0000268279
9.99999583814
10.0000415792
9.99997817423
10.0000656287
9.9999500437
10.000099823
9.99991211717
10.0001412673
9.99986973915
10.0001812469
9.99983560041
10.0002019657
9.99983297483
10.0001751896
9.99988906943
10.0000935904
9.99996134335
10.0000435963
10.0000430325
9.99992438947
9.99949450057
9.99851773431
9.99695262598
9.99494946791
9.99291155708
9.99130201156
9.99046250142
9.99051124166
9.99132026742
9.99262686322
9.99414946381
9.99564480308
9.99694509185
9.99797169013
9.99871898167
9.99922567614
9.99954807997
9.99974135521
9.99985025541
9.99990738802
9.99993522585
9.99994874887
9.99995737587
9.99996623456
9.99997721193
9.99999003936
10.0000033551
10.0000155784
10.0000254678
10.0000323588
10.0000361558
10.0000371891
10.0000360296
10.000033325
10.0000296836
10.0000256092
10.0000214779
10.0000175433
10.0000139534
10.0000107806
10.0000080344
10.0000056947
10.0000037217
10.0000020676
10.0000006835
9.99999952374
9.99999854763
9.99999772053
9.99999701341
9.99999640233
9.99999586787
9.99999539358
9.99999496699
9.99999457543
9.99999421217
9.999993864
9.99999353189
9.99999319519
9.99999287061
9.99999251571
9.99999218355
9.99999177823
9.99999143532
9.99999093857
9.9999906018
9.99998995607
9.99998968374
9.99998879971
9.99998874114
10.0000000046
10.0000000412
10.0000000882
10.0000001605
10.0000002693
10.0000004182
10.0000006016
10.0000008117
10.0000010425
10.0000012903
10.0000015573
10.0000018444
10.0000021537
10.0000024857
10.0000028411
10.00000322
10.0000036197
10.0000040421
10.0000044786
10.0000049388
10.0000054009
10.0000058946
10.0000063673
10.0000068961
10.000007359
10.0000079357
10.000008357
10.0000090119
10.0000093428
10.0000101243
10.0000103085
10.000011247
10.0000113019
10.0000122395
10.0000125913
10.0000126303
10.0000150022
10.0000110405
10.0000205664
10.0000044533
10.0000332417
9.99998783595
10.000058603
9.99995549762
10.0001013176
9.99990443758
10.0001619331
9.99983618641
10.0002372561
9.99975430097
10.0003240633
9.99966205055
10.0004083816
9.99961854109
10.0003397286
9.99979444693
10.0003015474
9.99969258843
9.99809782264
9.99417048248
9.98726828267
9.97779244137
9.96694432527
9.95700415752
9.95000138224
9.94717300305
9.94872443715
9.95374835408
9.96089746139
9.96890634064
9.97669393443
9.9834869461
9.98890819332
9.99291586285
9.99568314438
9.99748381497
9.99860036112
9.99926667635
9.99964889618
9.99985358521
9.99994671072
9.99997090849
9.99995609564
9.99992411739
9.99989019571
9.99986354185
9.99984826073
9.99984469345
9.99985089939
9.99986395207
9.99988086465
9.99989912228
9.99991689256
9.99993302456
9.99994693485
9.99995845538
9.9999676872
9.99997488139
9.9999803518
9.99998442177
9.99998738188
9.99998948858
9.99999095302
9.99999194304
9.99999258863
9.99999298776
9.99999321337
9.99999331779
9.99999333901
9.9999933023
9.99999322589
9.99999311999
9.99999299193
9.99999284445
9.99999267775
9.99999249356
9.99999228333
9.99999205746
9.99999178808
9.99999151464
9.99999116157
9.99999084189
9.99999036869
9.99999002195
9.99998937391
9.99998905923
9.99998814827
9.99998801166
10.0000000011
10.0000000411
10.0000000878
10.0000001645
10.0000002795
10.0000004322
10.0000006181
10.0000008313
10.0000010677
10.0000013242
10.0000016006
10.0000018979
10.0000022167
10.0000025594
10.0000029239
10.0000033139
10.0000037223
10.0000041569
10.0000046015
10.0000050758
10.0000055445
10.0000060552
10.0000065315
10.0000070832
10.000007542
10.0000081559
10.0000085516
10.0000092839
10.0000095244
10.0000105022
10.0000103973
10.000011881
10.0000110687
10.0000135277
10.0000114642
10.0000154729
10.0000117292
10.0000171569
10.0000130401
10.0000162256
10.0000193074
10.0000065267
10.0000390105
9.99997734898
10.0000836912
9.99991820194
10.0001599725
9.99982822692
10.0002615289
9.99972062493
10.0003717793
9.99959310949
10.0005719984
9.99923333611
10.0009611517
9.99951666304
10.000225348
9.99364568499
9.98150978214
9.95719558879
9.92190561592
9.87874480207
9.83363924219
9.79640459969
9.77322167541
9.76720445228
9.77809608846
9.80139863021
9.83177230952
9.86498360758
9.89732397812
9.92589198029
9.94915948221
9.96679234566
9.97926078397
9.98751260114
9.99266848572
9.99576485604
9.99760416395
9.99872111715
9.99942714755
9.99988423028
10.0001723764
10.0003352993
10.0004041524
10.0004062028
10.0003659299
10.0003037458
10.0002349293
10.0001695312
10.0001131021
10.0000678206
10.0000336539
10.0000093335
9.99999306558
9.99998298717
9.9999774168
9.99997496514
9.99997455226
9.99997538482
9.99997690123
9.99997872265
9.99998060969
9.9999824186
9.99998407241
9.99998553515
9.99998679968
9.99998787053
9.99998876496
9.99998949622
9.99999008751
9.99999054731
9.99999089979
9.99999114308
9.99999130334
9.99999136601
9.99999136175
9.99999126372
9.99999110641
9.99999085777
9.99999054439
9.99999015298
9.99998966466
9.9999891465
9.99998844434
9.9999878445
9.99998685842
9.99998629322
10.0000000057
10.0000000533
10.0000001092
10.0000001874
10.0000003023
10.0000004556
10.0000006431
10.0000008595
10.0000011002
10.0000013631
10.0000016467
10.0000019524
10.0000022797
10.0000026312
10.0000030047
10.0000034036
10.0000038217
10.0000042652
10.0000047211
10.0000052034
10.0000056869
10.0000062023
10.0000067009
10.0000072481
10.0000077453
10.0000083341
10.0000088019
10.000009466
10.0000098426
10.0000106746
10.0000108073
10.0000120457
10.0000115534
10.0000138043
10.0000118008
10.0000163758
10.0000109986
10.000020319
10.000008676
10.0000254973
10.0000061864
10.0000280516
10.000011215
10.0000148672
10.0000427472
9.99996206296
10.0001260434
9.99984703296
10.0002773208
9.99966687282
10.0004526492
9.99959065984
10.0003524205
9.99946545579
10.0020925987
9.99741906505
9.98796066901
9.94826769348
9.88515560972