/*--------------------------------*- C++ -*----------------------------------*\
  =========                 |
  \\      /  F ield         | OpenFOAM: The Open Source CFD Toolbox
   \\    /   O peration     | Website:  https://openfoam.org
    \\  /    A nd           | Version:  7
     \\/     M anipulation  |
\*---------------------------------------------------------------------------*/
FoamFile
{
    version     2.0;
    format      ascii;
    class       volScalarField;
    location    "420";
    object      p;
}
// * * * * * * * * * * * * * * * * * * * * * * * * * * * * * * * * * * * * * //

dimensions      [0 2 -2 0 0 0 0];

internalField   nonuniform List<scalar> 
8192
(
0.000699544947868
0.000528016078517
0.000442453080222
0.000398412226064
0.000373466700665
0.000358307550825
0.000348512033617
0.000341833176336
0.000337063129981
0.000333517761564
0.000330790068818
0.000328626711119
0.000326863455061
0.000325389966685
0.000324129803097
0.000323028584648
0.000322046738236
0.000321154888984
0.000320330839327
0.000319557530383
0.000318821628628
0.000318112521194
0.000317421583787
0.000316741634053
0.000316066512257
0.000315390749939
0.000314709298921
0.000314017302348
0.000313309892224
0.000312582002025
0.000311828185482
0.000311042434955
0.000310217993511
0.000309347156769
0.000308421061295
0.000307429458683
0.000306360475999
0.000305200366943
0.000303933261226
0.000302540925428
0.000301002553906
0.000299294616017
0.000297390792259
0.000295262038901
0.000292876823186
0.000290201570254
0.000287201352493
0.000283840833696
0.000280085450162
0.000275902775379
0.000271263977086
0.000266145250009
0.00026052910253
0.000254405403717
0.000247772151738
0.000240635992408
0.000233012564287
0.000224926759608
0.000216412967317
0.000207515322947
0.000198287903639
0.000188794644799
0.000179108568791
0.000169309910053
0.000159483030263
0.00014971251366
0.000140079182101
0.000130656797682
0.000121510002168
0.000112693618553
0.000104252992463
9.62248308183e-05
8.86380630366e-05
8.15144641619e-05
7.4868960792e-05
6.87096617274e-05
6.30377441045e-05
5.78473870092e-05
5.31259392372e-05
4.88544379966e-05
4.50084905478e-05
4.15594418448e-05
3.84756980769e-05
3.57240671428e-05
3.32709959433e-05
3.10836220167e-05
2.91305954634e-05
2.73826633071e-05
2.58130327636e-05
2.4397546755e-05
2.31147103599e-05
2.19456083274e-05
2.08737484503e-05
1.98848608824e-05
1.89666755772e-05
1.81086952163e-05
1.73019743745e-05
1.65389128288e-05
1.58130663559e-05
1.51189774576e-05
1.4452025488e-05
1.38082960545e-05
1.31844675475e-05
1.25777137745e-05
1.19856201304e-05
1.1406112196e-05
1.08373943119e-05
1.02778972745e-05
9.72623301829e-06
9.18115580807e-06
8.64152820844e-06
8.1062918211e-06
7.57444159677e-06
7.04500441808e-06
6.5170217266e-06
5.98953833554e-06
5.46159945935e-06
4.93226180006e-06
4.40062698178e-06
3.86591414524e-06
3.32759988372e-06
2.78567975822e-06
2.24115295395e-06
1.69693520903e-06
1.15963397958e-06
6.43192565115e-07
1.77849196941e-07
-8.52271922624e-08
0.000550610146679
0.000487117535098
0.000437474150955
0.000404882571064
0.000383025019891
0.000367905182506
0.000357140933475
0.000349265593901
0.000343353125628
0.000338804954156
0.000335225158362
0.000332345859855
0.000329981796228
0.000328002147612
0.000326312723625
0.000324844474289
0.000323545928542
0.000322378116734
0.00032131109311
0.000320321507995
0.000319390880702
0.000318504348166
0.000317649741235
0.000316816889763
0.00031599708894
0.000315182679544
0.000314366708882
0.000313542650134
0.000312704161308
0.00031184487012
0.000310958174758
0.000310037052954
0.000309073873169
0.000308060203724
0.000306986616865
0.000305842486944
0.000304615783567
0.000303292863646
0.00030185826914
0.000300294541829
0.00029858207079
0.000296698994125
0.000294621181384
0.000292322328142
0.000289774195953
0.000286947029612
0.000283810175243
0.000280332907852
0.000276485452979
0.000272240158478
0.000267572741839
0.000262463516903
0.000256898498388
0.000250870303938
0.000244378817674
0.000237431635377
0.000230044351011
0.000222240751895
0.000214052968718
0.000205521600518
0.000196695784255
0.000187633053909
0.000178398656922
0.000169063959758
0.000159703834823
0.000150393363636
0.000141204482457
0.000132203194531
0.000123447805767
0.000114988292103
0.00010686651798
9.91168444607e-05
9.17667482239e-05
8.48372654977e-05
7.83432113033e-05
7.22932027944e-05
6.66895834975e-05
6.15284003051e-05
5.67995837214e-05
5.24874225753e-05
4.85713375826e-05
4.50268866773e-05
4.18268947855e-05
3.89425954294e-05
3.63446878307e-05
3.40042431313e-05
3.18934239226e-05
2.99860096364e-05
2.82577398316e-05
2.66865007748e-05
2.52523854965e-05
2.39376588849e-05
2.27266557811e-05
2.16056364836e-05
2.05626182648e-05
1.95871976367e-05
1.86703731031e-05
1.78043756287e-05
1.69825105507e-05
1.61990135917e-05
1.54489213568e-05
1.47279566471e-05
1.40324274248e-05
1.33591388123e-05
1.2705316427e-05
1.20685402137e-05
1.14466870476e-05
1.08378813927e-05
1.02404524972e-05
9.65289769425e-06
9.0738506288e-06
8.50205439791e-06
7.936338938e-06
7.3756033191e-06
6.81880319622e-06
6.26494538971e-06
5.71309178075e-06
5.1623774367e-06
4.61204971018e-06
4.0615404166e-06
3.51058934635e-06
2.95944995381e-06
2.4092265531e-06
1.86242720155e-06
1.32387548815e-06
8.02278481451e-07
3.12313276591e-07
-2.60747973968e-08
0.000467608258683
0.000444970512878
0.00041902455171
0.000397841882229
0.000381777744502
0.000369519010718
0.000360043870344
0.000352623412143
0.00034673500632
0.000341999250104
0.000338137883311
0.000334945022894
0.000332267039459
0.000329988291722
0.000328020939321
0.000326297628713
0.000324766212395
0.000323385911229
0.00032212450378
0.000320956249759
0.000319860340569
0.000318819730806
0.000317820246387
0.000316849894987
0.000315898325068
0.000314956393006
0.000314015809969
0.000313068849131
0.000312108094968
0.000311126221855
0.00031011579266
0.000309069070136
0.000307977835163
0.00030683320797
0.000305625469373
0.000304343881277
0.000302976506867
0.000301510033819
0.000299929605907
0.00029821867245
0.000296358868311
0.000294329942354
0.000292109756191
0.000289674379889
0.000286998312969
0.0002840548591
0.000280816676217
0.000277256512084
0.000273348114343
0.000269067278487
0.000264392967581
0.000259308415057
0.000253802112765
0.000247868604137
0.000241509045005
0.000234731553737
0.000227551413803
0.000219991194989
0.000212080831738
0.000203857687126
0.000195366621643
0.000186659973806
0.000177797113356
0.000168843110801
0.000159866345526
0.000150935407331
0.000142115949454
0.000133468101426
0.000125044899105
0.00011689184059
0.000109047233833
0.000101542821974
9.44043271755e-05
8.76517974394e-05
8.1299750216e-05
7.53571394186e-05
6.98272288854e-05
6.47075211646e-05
5.99898919064e-05
5.56610145404e-05
5.17030689063e-05
4.8094660531e-05
4.48118449843e-05
4.18291535315e-05
3.91205351723e-05
3.66601596485e-05
3.44230533849e-05
3.23855652219e-05
3.05256744577e-05
2.88231645995e-05
2.72596889964e-05
2.58187554389e-05
2.44856529498e-05
2.32473412555e-05
2.20923181136e-05
2.10104769538e-05
1.99929627687e-05
1.90320326558e-05
1.81209241033e-05
1.72537337321e-05
1.64253068597e-05
1.56311386754e-05
1.48672860735e-05
1.41302900978e-05
1.34171075378e-05
1.27250513836e-05
1.20517385969e-05
1.13950449566e-05
1.07530655665e-05
1.01240809847e-05
9.50652781805e-06
8.89897406335e-06
8.30009842736e-06
7.70867440933e-06
7.12355902382e-06
6.54368781236e-06
5.96807719995e-06
5.39583747822e-06
4.82619975667e-06
4.25856339972e-06
3.69257193194e-06
3.12823074065e-06
2.56608489111e-06
2.00748585949e-06
1.45498486146e-06
9.12811788329e-07
3.86543494503e-07
-9.66085291794e-09
0.000422983961384
0.000414638206154
0.000400495061766
0.00038675312494
0.00037537240458
0.00036613989312
0.000358601644531
0.000352388805456
0.000347222974116
0.000342891503922
0.000339228634115
0.000336103320391
0.000333411120916
0.00033106839617
0.000329007927961
0.000327175506991
0.000325527238868
0.000324027407752
0.00032264678026
0.000321361258085
0.000320150805954
0.000318998596158
0.000317890322578
0.000316813646961
0.000315757748679
0.000314712951477
0.000313670411513
0.00031262185406
0.00031155934441
0.000310475083604
0.000309361222253
0.000308209686588
0.000307012011966
0.000305759180468
0.000304441460125
0.000303048244805
0.000301567895004
0.00029998758187
0.000298293138749
0.000296468927701
0.000294497731642
0.000292360687198
0.000290037277622
0.000287505409902
0.000284741603304
0.000281721317736
0.000278419446317
0.00027481098635
0.000270871883869
0.000266580020407
0.000261916278882
0.000256865597266
0.00025141790425
0.000245568845299
0.000239320256196
0.000232680414041
0.000225664150271
0.000218292905054
0.000210594754348
0.000202604443346
0.000194363518044
0.000185920547464
0.000177331034117
0.0001686563309
0.000159961247527
0.000151310806186
0.000142766965681
0.000134385982948
0.000126216943789
0.000118301601516
0.000110675050042
0.000103366537587
9.64000345677e-05
8.97945340258e-05
8.35641378593e-05
7.77179453919e-05
7.22598207153e-05
6.71882141149e-05
6.24962189502e-05
5.81719547013e-05
5.41992550808e-05
5.05585677554e-05
4.72279475985e-05
4.41840357651e-05
4.14029432542e-05
3.88609898782e-05
3.65352782823e-05
3.44041057113e-05
3.2447230408e-05
3.0646017412e-05
2.89834899793e-05
2.74443116969e-05
2.60147204442e-05
2.4682431723e-05
2.34365244181e-05
2.2267319002e-05
2.11662548379e-05
2.01257714274e-05
1.91391962687e-05
1.82006411959e-05
1.73049077147e-05
1.64474017055e-05
1.56240569937e-05
1.48312675141e-05
1.40658271801e-05
1.33248769923e-05
1.26058584303e-05
1.19064726903e-05
1.12246449046e-05
1.05584930456e-05
9.90630082577e-06
9.26649451022e-06
8.63762320298e-06
8.01834282426e-06
7.40740370301e-06
6.80364245752e-06
6.20597867075e-06
5.61341780649e-06
5.02506194012e-06
4.44013130269e-06
3.85800059177e-06
3.27825680608e-06
2.70078807943e-06
2.12591502652e-06
1.5545542912e-06
9.88243442786e-07
4.28085959154e-07
-6.75995021843e-09
0.000395290655617
0.000393377802573
0.000385632765442
0.000376489082524
0.000368250998122
0.000361255230341
0.000355344425737
0.000350313108854
0.000345992914965
0.000342254207807
0.000338995781697
0.000336136440222
0.000333609581025
0.00033135980455
0.000329340670612
0.00032751308419
0.000325844042791
0.000324305614572
0.000322874082609
0.00032152922054
0.000320253677425
0.000319032455217
0.000317852464741
0.00031670214778
0.000315571155828
0.000314450069624
0.000313330157016
0.000312203162934
0.000311061120662
0.000309896179709
0.000308700446217
0.00030746583192
0.000306183908261
0.000304845763106
0.000303441858101
0.000301961885726
0.000300394626018
0.000298727804519
0.00029694795468
0.000295040290625
0.000292988599201
0.000290775164501
0.000288380742662
0.000285784610191
0.000282964713673
0.00027989795175
0.000276560618669
0.00027292903035
0.000268980335505
0.000264693485818
0.000260050302096
0.000255036536664
0.000249642808623
0.000243865298419
0.000237706146275
0.000231173598262
0.000224282024163
0.000217051913839
0.000209509861423
0.000201688554615
0.000193626970592
0.000185370939256
0.000176973574656
0.000168494475343
0.000159997134146
0.000151545251645
0.0001431990726
0.000135012499448
0.0001270316514
0.000119295100603
0.000111835066888
0.000104678535747
9.78478692985e-05
9.13610646011e-05
8.52317960909e-05
7.94692158099e-05
7.40775721318e-05
6.90558795962e-05
6.43978821742e-05
6.00924135215e-05
5.61241076433e-05
5.24743328677e-05
4.91222076585e-05
4.60455801773e-05
4.32218899236e-05
4.0628867701e-05
3.82450615104e-05
3.60501988205e-05
3.40254083782e-05
3.21533301431e-05
3.04181413038e-05
2.88055232806e-05
2.73025897296e-05
2.58977912192e-05
2.45808078082e-05
2.33424376813e-05
2.21744870646e-05
2.10696649999e-05
2.00214848349e-05
1.90241736156e-05
1.80725895792e-05
1.71621478279e-05
1.62887536655e-05
1.54487432422e-05
1.46388307503e-05
1.38560617101e-05
1.30977715675e-05
1.2361549187e-05
1.16452045397e-05
1.0946740275e-05
1.02643265969e-05
9.59627926979e-06
8.94104032367e-06
8.29716145109e-06
7.6632898613e-06
7.03815682666e-06
6.42056900963e-06
5.809403272e-06
5.20360576841e-06
4.60219715375e-06
4.00428643451e-06
3.40909754481e-06
2.81601230008e-06
2.22462528325e-06
1.6347610074e-06
1.04622781289e-06
4.57616363743e-07
-5.96225707388e-09
0.000376875064049
0.000377840046677
0.00037385920858
0.000367775683204
0.000361722865011
0.000356323196389
0.000351627517639
0.000347541121309
0.000343957556894
0.000340788454108
0.000337964531082
0.000335431028419
0.000333143502542
0.000331064920356
0.000329163804398
0.000327413046695
0.000325789110847
0.000324271452432
0.000322842064052
0.000321485096237
0.000320186529483
0.00031893388483
0.000317715966037
0.000316522628741
0.0003153445757
0.000314173165789
0.000313000243116
0.000311817984596
0.000310618756135
0.000309394977328
0.000308138992409
0.000306842945055
0.000305498654849
0.000304097493581
0.000302630259872
0.000301087051196
0.000299457133026
0.000297728805958
0.000295889273099
0.000293924512247
0.000291819160337
0.000289556421809
0.000287118017683
0.000284484198501
0.000281633850713
0.00027854473149
0.000275193868209
0.000271558152764
0.000267615142918
0.00026334405129
0.000258726858101
0.000253749434912
0.000248402529113
0.000242682460001
0.000236591446869
0.000230137630724
0.000223334980911
0.000216203244839
0.00020876789826
0.000201060037841
0.000193116582363
0.000184981293501
0.00017670601262
0.00016835025888
0.000159978202847
0.000151654194664
0.000143438467642
0.000135383801326
0.00012753402609
0.000119924839281
0.00011258580266
0.000105541868241
9.88139781402e-05
9.24192490032e-05
8.63709922511e-05
8.06784201141e-05
7.53460606944e-05
7.03732212427e-05
6.57538439434e-05
6.14768711445e-05
5.75270279928e-05
5.38858438094e-05
5.05327375577e-05
4.74460349332e-05
4.46038340586e-05
4.1984682158e-05
3.9568060537e-05
3.73346982645e-05
3.52667459978e-05
3.33478440022e-05
3.15631152201e-05
2.98991089655e-05
2.83437146557e-05
2.68860597896e-05
2.55164018015e-05
2.42260202633e-05
2.30071132997e-05
2.18527005747e-05
2.07565338808e-05
1.97130158003e-05
1.87171262529e-05
1.77643566476e-05
1.68506510174e-05
1.59723536255e-05
1.51261623276e-05
1.43090871725e-05
1.35184135663e-05
1.27516695561e-05
1.20065966457e-05
1.12811237915e-05
1.05733440906e-05
9.8814939017e-06
9.20393401105e-06
8.53913268986e-06
7.88565037771e-06
7.24212600262e-06
6.60726490209e-06
5.97982870512e-06
5.35862765964e-06
4.74251647614e-06
4.13039488157e-06
3.5212136916e-06
2.91398284196e-06
2.30776167974e-06
1.70155916826e-06
1.0939352435e-06
4.81881101563e-07
-4.64072930243e-09
0.000363940753706
0.000366147223348
0.000364418242033
0.000360453548039
0.000356006804977
0.000351796706066
0.000348013749283
0.000344653112624
0.000341658000161
0.000338968399201
0.000336533584438
0.000334312944016
0.000332273938272
0.000330389936197
0.000328638572557
0.000327000627367
0.000325459286347
0.000323999647562
0.00032260837773
0.000321273456935
0.000319983975359
0.000318729961411
0.000317502229914
0.000316292244277
0.000315091990955
0.000313893855738
0.000312690508393
0.000311474798408
0.000310239650385
0.00030897796205
0.00030768250347
0.000306345816001
0.000304960109536
0.000303517156673
0.000302008182526
0.000300423749181
0.000298753634193
0.00029698670327
0.000295110778483
0.000293112505191
0.000290977223721
0.000288688855994
0.000286229823009
0.00028358101654
0.000280721856993
0.000277630477732
0.000274284081119
0.000270659508465
0.000266734049143
0.000262486478838
0.000257898262905
0.000252954795667
0.00024764648832
0.000241969502367
0.000235926004711
0.000229524024723
0.000222777216329
0.000215704785776
0.000208331440871
0.00020068708946
0.000192806880427
0.000184732821771
0.000176516329111
0.000168218460003
0.000159906074346
0.000151646111032
0.000143500429022
0.000135521774177
0.000127752082092
0.000120224175303
0.000112965019472
0.000105997751087
9.93420965775e-05
9.30144183525e-05
8.7027771743e-05
8.1391519976e-05
7.61104596172e-05
7.11839963301e-05
6.66058787633e-05
6.23646099816e-05
5.84443637162e-05
5.48261514778e-05
5.14890237714e-05
4.84111568783e-05
4.55707419439e-05
4.29466472208e-05
4.05188635522e-05
3.82687662907e-05
3.61792356471e-05
3.42346764054e-05
3.24209715754e-05
3.07253965553e-05
2.9136512762e-05
2.76440534807e-05
2.62388099835e-05
2.49125226906e-05
2.36577799055e-05
2.24679252531e-05
2.13369740448e-05
2.02595383014e-05
1.92307598648e-05
1.82462509149e-05
1.73020411478e-05
1.63945308981e-05
1.55204495101e-05
1.46768183275e-05
1.38609177146e-05
1.30702575909e-05
1.23025509974e-05
1.15556902784e-05
1.08277254868e-05
1.01168446798e-05
9.42135579162e-06
8.73966983134e-06
8.07028518313e-06
7.41177287349e-06
6.76276273648e-06
6.12193053942e-06
5.48798620605e-06
4.85966324416e-06
4.23570884703e-06
3.61487181869e-06
2.99587834039e-06
2.37736635849e-06
1.75770325074e-06
1.13452602628e-06
5.03783443782e-07
-1.49594782553e-09
0.000354448209495
0.000357130154653
0.000356756629451
0.000354277494663
0.000351047041774
0.000347762979785
0.000344692481
0.000341899022075
0.000339369091874
0.00033706769355
0.000334958839327
0.000333011504144
0.000331200285898
0.000329504495561
0.000327907025118
0.000326393399786
0.00032495107964
0.000323568970808
0.000322237087656
0.000320946315771
0.000319688239276
0.000318455008053
0.000317239229338
0.000316033875172
0.000314832197994
0.000313627648287
0.000312413794825
0.000311184253203
0.000309932610053
0.000308652346542
0.000307336759942
0.000305978882156
0.000304571393982
0.000303106533893
0.00030157600002
0.000299970844107
0.000298281356368
0.000296496940627
0.000294605979971
0.000292595694744
0.000290451997258
0.00028815935183
0.000285700654927
0.000283057158961
0.000280208474277
0.000277132696011
0.000273806712142
0.000270206750551
0.000266309207872
0.000262091764121
0.000257534721498
0.000252622419897
0.000247344494058
0.000241696690897
0.000235681044013
0.000229305495226
0.000222583448674
0.000215533730705
0.000208180641407
0.000200553307925
0.000192685185461
0.000184616412176
0.000176398584958
0.000168096088596
0.000159780753613
0.00015152419098
0.000143391636821
0.000135436891164
0.000127700090148
0.000120210790817
0.000112993272638
0.000106069117222
9.94570561706e-05
9.3172788339e-05
8.72292285897e-05
8.16360528285e-05
7.63983893897e-05
7.15155844958e-05
6.69808038762e-05
6.27815554859e-05
5.89008201651e-05
5.5318431615e-05
5.20124406295e-05
4.89603006462e-05
4.61397940683e-05
4.35296827089e-05
4.11101093315e-05
3.88628001253e-05
3.67711231003e-05
3.48200517201e-05
3.29960724286e-05
3.12870637508e-05
2.96821651458e-05
2.81716467807e-05
2.67467863935e-05
2.53997563008e-05
2.41235215679e-05
2.29117493165e-05
2.17587284671e-05
2.06592990172e-05
1.9608789789e-05
1.8602963673e-05
1.76379693818e-05
1.67102988924e-05
1.58167497731e-05
1.49543917548e-05
1.41205369138e-05
1.33127129776e-05
1.25286392531e-05
1.17662048031e-05
1.10234484656e-05
1.0298540422e-05
9.58976498145e-06
8.89550435055e-06
8.2142231154e-06
7.54445326487e-06
6.8847795251e-06
6.23382481924e-06
5.59023542883e-06
4.95266498207e-06
4.3197549032e-06
3.69010548749e-06
3.06222336526e-06
2.43441302951e-06
1.80454577484e-06
1.16959539682e-06
5.24842575891e-07
4.2140243402e-09
0.000347234945656
0.00035003510945
0.00035047618904
0.000349042255658
0.000346743440191
0.000344199233716
0.000341704889321
0.000339369386347
0.000337214585024
0.000335228212839
0.000333388001663
0.00033167129951
0.00033005819036
0.000328531998387
0.000327078889712
0.000325687269563
0.000324347226218
0.000323050088918
0.000321788098121
0.000320554165771
0.000319341701228
0.000318144482462
0.00031695655722
0.000315772166123
0.000314585673231
0.000313391503291
0.000312184081772
0.000310957781399
0.000309706864552
0.000308425423618
0.000307107318042
0.000305746106831
0.000304334975251
0.000302866654294
0.00030133333142
0.000299726550892
0.000298037102073
0.000296254894114
0.000294368816069
0.000292366582599
0.000290234567783
0.00028795763358
0.000285518966188
0.000282899943514
0.000280080070881
0.00027703703865
0.000273746971447
0.000270184946613
0.000266325848392
0.000262145582627
0.000257622597992
0.000252739548571
0.000247484805618
0.000241853427502
0.000235847247578
0.00022947414304
0.000222747258053
0.000215685098882
0.000208311957491
0.000200656722983
0.000192751028889
0.000184632394102
0.000176352919864
0.000167982593949
0.000159601072272
0.000151286991757
0.000143111030031
0.000135129326561
0.000127379941248
0.000119888208669
0.000112675506965
0.000105762291135
9.91665401153e-05
9.29032653871e-05
8.69853220685e-05
8.1422928643e-05
7.62216679985e-05
7.13806573884e-05
6.68920259693e-05
6.27416551949e-05
5.89106318012e-05
5.53769181875e-05
5.21169283031e-05
4.91068376576e-05
4.63235548128e-05
4.3745355542e-05
4.13522293632e-05
3.91260094892e-05
3.70503571972e-05
3.51106594422e-05
3.32938827195e-05
3.15884114738e-05
2.9983888037e-05
2.84710631013e-05
2.70416607668e-05
2.56882591626e-05
2.44041861176e-05
2.3183428524e-05
2.20205538383e-05
2.09106420758e-05
1.98492268456e-05
1.88322440542e-05
1.78559871629e-05
1.69170679662e-05
1.6012382082e-05
1.51390783943e-05
1.42945318689e-05
1.3476319175e-05
1.26821966911e-05
1.19100804563e-05
1.11580277488e-05
1.04242199342e-05
9.70694632845e-06
9.00458876153e-06
8.31560660913e-06
7.63852196295e-06
6.9719046192e-06
6.31435631089e-06
5.66449328119e-06
5.02092530999e-06
4.38222743124e-06
3.74689640681e-06
3.11327590765e-06
2.47941924529e-06
1.84283603306e-06
1.20005169499e-06
5.45945524605e-07
1.296765363e-08
0.000341605940184
0.000344360797033
0.000345286493013
0.000344587817007
0.000343004291982
0.000341058072016
0.000339040457147
0.000337085727924
0.000335241956297
0.000333516326205
0.000331899357396
0.000330376438771
0.000328932742885
0.000327554984394
0.000326231793428
0.000324953549223
0.000323712052839
0.000322500194569
0.000321311669939
0.000320140754627
0.000318982132058
0.000317830762688
0.000316681783862
0.000315530435347
0.000314371992952
0.000313201710583
0.000312014770365
0.00031080623676
0.000309571008655
0.000308303769394
0.000306998933234
0.00030565058673
0.000304252423493
0.00030279767063
0.000301279004957
0.000299688456816
0.000298017299078
0.00029625591875
0.000294393668762
0.000292418698215
0.00029031776126
0.000288076008562
0.000285676772192
0.0002831013661
0.000280328941118
0.000277336455613
0.000274098846908
0.00027058950597
0.000266781153658
0.000262647173815
0.000258163365403
0.000253309935327
0.00024807337774
0.000242447704756
0.000236434457834
0.000230041438207
0.000223281352693
0.000216172209895
0.000208738746939
0.000201010533448
0.000193017084304
0.000184791482065
0.000176386213242
0.000167880182842
0.000159364738249
0.000150928196205
0.000142649326997
0.000134588460479
0.000126780758431
0.000119245450724
0.000112000753275
0.000105066835066
9.84611605138e-05
9.2197749854e-05
8.6289376222e-05
8.0747110288e-05
7.55771567808e-05
7.07781570243e-05
6.63406018497e-05
6.22479642643e-05
5.84786165748e-05
5.50078777118e-05
5.18098484506e-05
4.88588664864e-05
4.61305230488e-05
4.36022672984e-05
4.12536783558e-05
3.90665031813e-05
3.70245503734e-05
3.51135092992e-05
3.33207414488e-05
3.16350722095e-05
3.00465978522e-05
2.85465139823e-05
2.71269667478e-05
2.57809255445e-05
2.4502074846e-05
2.32847224822e-05
2.21237218005e-05
2.10144054115e-05
1.99525285624e-05
1.89342204886e-05
1.79559423871e-05
1.70144508838e-05
1.61067660754e-05
1.52301433743e-05
1.43820485239e-05
1.35601352426e-05
1.27622250462e-05
1.19862888492e-05
1.12304300027e-05
1.04928684508e-05
9.77192571511e-06
9.06601040891e-06
8.37360396854e-06
7.69324621055e-06
7.02352018578e-06
6.36303548746e-06
5.71040858734e-06
5.06423760201e-06
4.42306668817e-06
3.78533112733e-06
3.1492669075e-06
2.51275721366e-06
1.87307491191e-06
1.2264772185e-06
5.67646613457e-07
2.50707411386e-08
0.000337126843982
0.000339764989686
0.000340971691664
0.000340789071457
0.000339753886654
0.000338292484934
0.000336673985048
0.000335042338123
0.000333462920867
0.000331958331455
0.000330530392155
0.000329172115018
0.0003278736508
0.000326624980151
0.00032541696055
0.000324241597431
0.000323091981864
0.000321962109059
0.000320846675075
0.000319740891335
0.000318640329252
0.000317540795225
0.00031643823151
0.000315328641221
0.000314208023041
0.00031307231108
0.000311917329992
0.000310738751175
0.000309532049147
0.000308292456379
0.000307014914811
0.000305694022261
0.00030432397187
0.000302898482534
0.000301410717976
0.000299853191658
0.000298217654296
0.00029649496019
0.000294674908291
0.000292746054058
0.0002906954894
0.000288508591237
0.000286168746042
0.000283657069989
0.000280952164262
0.000278029973534
0.000274863850049
0.000271424956312
0.000267683146844
0.000263608428215
0.000259172988413
0.000254353613895
0.000249134083108
0.000243506829479
0.000237472935047
0.00023104004205
0.000224219921362
0.000217029370871
0.00020949401939
0.000201645871212
0.000193511998417
0.000185117274727
0.000176513628148
0.00016779432432
0.000159067986473
0.000150435334804
0.000141986920016
0.000133790456277
0.000125876471792
0.000118254552242
0.0001109396548
0.000103953383564
9.73127882104e-05
9.10299622903e-05
8.51173645453e-05
7.95873446669e-05
7.44469181534e-05
6.96938251368e-05
6.53160574585e-05
6.12936634161e-05
5.760130579e-05
5.42107738727e-05
5.10931197063e-05
4.82202700928e-05
4.55660769142e-05
4.31068658801e-05
4.08216037552e-05
3.86918165386e-05
3.67013710553e-05
3.48362002373e-05
3.3084021872e-05
3.14340773882e-05
2.9876902058e-05
2.84041290808e-05
2.70083255141e-05
2.56828560688e-05
2.44217703792e-05
2.32197095731e-05
2.20718285558e-05
2.09737309816e-05
1.99214144956e-05
1.89112242667e-05
1.79398132719e-05
1.70041080632e-05
1.61012790401e-05
1.52287143995e-05
1.43839971266e-05
1.35648844651e-05
1.27692894336e-05
1.19952639789e-05
1.12409834474e-05
1.05047320418e-05
9.78488898434e-06
9.07991504801e-06
8.38833911056e-06
7.70874423123e-06
7.03975257721e-06
6.38000808943e-06
5.72815509858e-06
5.08280977553e-06
4.44251908267e-06
3.80569803329e-06
3.17053010072e-06
2.53480751049e-06
1.89568114609e-06
1.2492933627e-06
5.90297569027e-07
4.06928097454e-08
0.000333514531018
0.000336008102166
0.000337368614875
0.000337546419286
0.000336930230627
0.000335861420031
0.00033457847715
0.000333224156501
0.000331873501731
0.000330560327971
0.000329295829028
0.000328079910637
0.00032690749995
0.000325771810388
0.000324665897411
0.000323583307783
0.000322518274151
0.000321465698105
0.000320421047287
0.000319380228312
0.000318339463509
0.00031729518233
0.000316243930832
0.000315182298638
0.000314106855647
0.000313014091284
0.000311900371153
0.000310761893909
0.000309594649365
0.000308394375572
0.000307156512925
0.000305876153297
0.000304547982088
0.000303166210796
0.000301724497296
0.000300215850413
0.000298632514577
0.000296965829518
0.000295206058985
0.000293342181965
0.00029136164015
0.000289250037768
0.000286990796071
0.000284564777556
0.000281949917693
0.000279120937417
0.000276049256877
0.000272703279947
0.000269049244908
0.00026505280255
0.000260681359041
0.000255907013711
0.000250709645463
0.000245079271674
0.000239016196158
0.000232527712647
0.000225623588367
0.000218317532941
0.000210636205262
0.000202617499944
0.000194286143938
0.000185651256704
0.000176761561734
0.000167734557698
0.000158704682893
0.00014978694323
0.000141089241448
0.000132692936495
0.000124620479811
0.000116865097873
0.000109439086078
0.00010236897119
9.56709063175e-05
8.93527658894e-05
8.34261033622e-05
7.79051871643e-05
7.27980101009e-05
6.81006481864e-05
6.37973317433e-05
5.98633501544e-05
5.62684466666e-05
5.29798662006e-05
4.99648197063e-05
4.71922511348e-05
4.46338933896e-05
4.22647186385e-05
4.00629564816e-05
3.80098553262e-05
3.60893245864e-05
3.42875481428e-05
3.25926194781e-05
3.09942212371e-05
2.94833553194e-05
2.80521210001e-05
2.66935348743e-05
2.54013855129e-05
2.41701161157e-05
2.29947294051e-05
2.18707100474e-05
2.07939608661e-05
1.97607499223e-05
1.87676661984e-05
1.78115821289e-05
1.6889621614e-05
1.59991324512e-05
1.51376623432e-05
1.43029378111e-05
1.34928454687e-05
1.27054152096e-05
1.19388049265e-05
1.11912864307e-05
1.04612322614e-05
9.74710308007e-06
9.04743531277e-06
8.36082862974e-06
7.68593270589e-06
7.02143244486e-06
6.36603039e-06
5.71842426912e-06
5.07727630503e-06
4.44116878646e-06
3.80853705723e-06
3.17756637199e-06
2.54603364066e-06
1.91107192094e-06
1.26884107188e-06
6.14109739495e-07
5.98836617827e-08
0.000330576806212
0.00033291812148
0.0003343519102
0.000334779102046
0.000334481681502
0.000333729755333
0.000332728909467
0.000331613884445
0.000330463419441
0.000329318680896
0.000328198130522
0.000327107582993
0.000326046361305
0.000325010809376
0.000323996175917
0.000322997553082
0.000322010291753
0.000321030140486
0.000320053247349
0.000319076100489
0.00031809544704
0.000317108209783
0.000316111412634
0.000315102114938
0.00031407735126
0.000313034075297
0.000311969116943
0.000310879140512
0.000309760604181
0.00030860971864
0.000307422402995
0.000306194235836
0.000304920399171
0.000303595612572
0.000302214054266
0.000300769265127
0.000299254030417
0.00029766023278
0.000295978668433
0.000294198816954
0.000292308554219
0.000290293798883
0.000288138087695
0.000285822087188
0.000283323074053
0.00028061445902
0.00027766549162
0.000274441356928
0.000270903929938
0.000267013434576
0.000262731113371
0.000258022766267
0.000252862719894
0.000247237260161
0.000241145338525
0.00023459361009
0.00022758785242
0.000220134368879
0.000212259703134
0.000204014365138
0.000195422510813
0.000186462388859
0.000177173134252
0.000167715812204
0.000158264491986
0.000148946901413
0.000139897530417
0.000131224596491
0.000122935538514
0.000114994099206
0.000107412489455
0.000100229053798
9.34567372464e-05
8.709410153e-05
8.1150714534e-05
7.56438499593e-05
7.05825404987e-05
6.595985771e-05
6.17544462061e-05
5.79351325701e-05
5.4465320021e-05
5.1306594137e-05
4.84215176213e-05
4.57755304266e-05
4.33379601854e-05
4.10823089526e-05
3.89860613202e-05
3.70302416954e-05
3.51988851099e-05
3.34785193971e-05
3.1857706097e-05
3.03266556854e-05
2.8876915667e-05
2.7501122496e-05
2.61928061097e-05
2.49462362956e-05
2.37563016502e-05
2.26184136329e-05
2.15284298729e-05
2.04825922363e-05
1.94774762677e-05
1.85099494356e-05
1.75771362581e-05