/*--------------------------------*- C++ -*----------------------------------*\
  =========                 |
  \\      /  F ield         | OpenFOAM: The Open Source CFD Toolbox
   \\    /   O peration     | Website:  https://openfoam.org
    \\  /    A nd           | Version:  7
     \\/     M anipulation  |
\*---------------------------------------------------------------------------*/
FoamFile
{
    version     2.0;
    format      ascii;
    class       surfaceScalarField;
    location    "420";
    object      phi;
}
// * * * * * * * * * * * * * * * * * * * * * * * * * * * * * * * * * * * * * //

dimensions      [0 3 -1 0 0 0 0];

internalField   nonuniform List<scalar> 
16192
(
6.92879312103e-10
2.44620687897e-10
4.93475466291e-10
1.99403848798e-10
3.64726966963e-10
1.28748501794e-10
2.82170938179e-10
8.25560307072e-11
2.27606998205e-10
5.45639414918e-11
1.90084974954e-10
3.75220245519e-11
1.63255899651e-10
2.68290764958e-11
1.43401920142e-10
1.98539806615e-11
1.28284882154e-10
1.51170391112e-11
1.16509689946e-10
1.17751933282e-11
1.07174276633e-10
9.33541441458e-12
9.96743047096e-11
7.4999730251e-12
9.35914899724e-11
6.08281581101e-12
8.86278421785e-11
4.96364885643e-12
8.45657171272e-11
4.06212606956e-12
8.12427821001e-11
3.32293602093e-12
7.8535851663e-11
2.70693137085e-12
7.63501563895e-11
2.18569617222e-12
7.46120343346e-11
1.73812288088e-12
7.32638382976e-11
1.34819682051e-12
7.22603134749e-11
1.00352552424e-12
7.15659746077e-11
6.94339522328e-13
7.11531765733e-11
4.12798602817e-13
7.1000676431e-11
1.52500665807e-13
7.10925491294e-11
-9.18722592229e-14
7.14173617591e-11
-3.24812225445e-13
7.1967537832e-11
-5.50175739881e-13
7.27388655405e-11
-7.71327386996e-13
7.37301128062e-11
-9.91246986534e-13
7.49427208509e-11
-1.21260773587e-12
7.63805523946e-11
-1.4378312275e-12
7.8049675216e-11
-1.66912241181e-12
7.99581618239e-11
-1.90848611684e-12
8.21158876335e-11
-2.15772513559e-12
8.45343076677e-11
-2.41841917842e-12
8.72261917494e-11
-2.69188292729e-12
9.02052945223e-11
-2.97910131107e-12
9.34859362446e-11
-3.2806398234e-12
9.70824673252e-11
-3.59652872908e-12
1.01008591596e-10
-3.926121328e-12
1.05276524876e-10
-4.26792972843e-12
1.09895974917e-10
-4.61944573665e-12
1.14872940949e-10
-4.97696096408e-12
1.20208354238e-10
-5.33540731166e-12
1.25896608129e-10
-5.68824700229e-12
1.3192406287e-10
-6.02744680238e-12
1.38267644417e-10
-6.34357256985e-12
1.44893687328e-10
-6.62603277032e-12
1.51757180503e-10
-6.86348191896e-12
1.58801557969e-10
-7.04436500236e-12
1.65959119262e-10
-7.15754774041e-12
1.73152077456e-10
-7.19294353806e-12
1.80294126664e-10
-7.14203368586e-12
1.87292339594e-10
-6.99819665165e-12
1.94049178111e-10
-6.75682186942e-12
2.00464456735e-10
-6.41526185299e-12
2.06437208248e-10
-5.97273514671e-12
2.1186752413e-10
-5.43030026905e-12
2.16658541851e-10
-4.79100349232e-12
2.207188582e-10
-4.06030391535e-12
2.23965720273e-10
-3.2468521131e-12
2.26329213448e-10
-2.36348606777e-12
2.27757136961e-10
-1.42791983733e-12
2.28219548117e-10
-4.62411072691e-13
2.27711611459e-10
5.07932886037e-13
2.26253772474e-10
1.45783159928e-12
2.23889129638e-10
2.36463198718e-12
2.20678708362e-10
3.21040755308e-12
2.16695929067e-10
3.98276306821e-12
2.12021627673e-10
4.674283319e-12
2.06740463412e-10
5.28114468483e-12
2.00938812361e-10
5.80163055919e-12
1.94703743839e-10
6.23504740089e-12
1.88122553247e-10
6.58116936511e-12
1.81282379349e-10
6.84015280838e-12
1.74269538018e-10
7.0128208355e-12
1.6716835183e-10
7.10116645985e-12
1.60059473969e-10
7.10885925166e-12
1.53017912353e-10
7.04154418828e-12
1.46111080527e-10
6.90681580515e-12
1.39397191651e-10
6.7138742205e-12
1.32924217458e-10
6.4729610257e-12
1.26729499607e-10
6.19470605304e-12
1.20839985045e-10
5.88950418619e-12
1.15272971629e-10
5.56700428634e-12
1.10037212518e-10
5.23575123582e-12
1.05134219713e-10
4.90298597158e-12
1.00559629305e-10
4.57458459698e-12
9.63045199278e-11
4.25510436289e-12
9.23566139256e-11
3.9479017593e-12
8.87013196117e-11
3.65529062019e-12
8.53226012125e-11
3.37871524257e-12
8.22036780812e-11
3.11892030702e-12
7.93275688944e-11
2.87610670689e-12
7.66774994015e-11
2.6500671764e-12
7.42371972225e-11
2.44030006506e-12
7.19910936446e-11
2.24610150932e-12
6.99244533974e-11
2.06663828787e-12
6.80234477041e-11
1.90100370494e-12
6.62751861467e-11
1.74825962353e-12
6.46677171222e-11
1.60746702067e-12
6.31900073721e-11
1.4777077737e-12
6.18319058901e-11
1.35809941738e-12
6.05840989454e-11
1.24780489845e-12
5.94380583989e-11
1.14603840823e-12
5.8385987535e-11
1.05206874624e-12
5.74207645159e-11
9.65220814432e-13
5.65358860147e-11
8.84876326087e-13
5.57254097028e-11
8.10474060551e-13
5.49838969045e-11
7.41510590293e-13
5.43063528773e-11
6.77541757962e-13
5.36881647677e-11
6.18185901601e-13
5.31250331993e-11
5.63129319048e-13
5.26128956538e-11
5.12135380097e-13
5.21478350094e-11
4.65058462848e-13
5.17259677028e-11
4.21865237816e-13
5.13432993727e-11
3.82666277641e-13
5.09955339955e-11
3.47763475181e-13
5.06778109547e-11
3.17721199801e-13
5.03843341947e-11
2.93475123629e-13
5.01078314934e-11
2.76501191071e-13
4.98387469092e-11
2.69083352859e-13
4.95640042664e-11
2.74741608533e-13
4.92650978121e-11
2.98905734081e-13
4.89152179969e-11
3.49879239019e-13
4.84755994774e-11
4.39618114125e-13
4.78943746077e-11
5.81224736422e-13
7.45856947049e-13
9.53364260613e-10
2.2875643092e-10
8.59573724504e-10
2.93194389861e-10
7.45062557729e-10
2.43259672481e-10
6.41988408914e-10
1.85630182343e-10
5.56976766956e-10
1.39575585661e-10
4.88817821255e-10
1.05680972177e-10
4.34480682838e-10
8.11662166999e-11
3.91004463232e-10
6.33302019914e-11
3.55968992954e-10
5.01525110681e-11
3.27512826962e-10
4.02313609739e-11
3.04233314371e-10
3.26149286226e-11
2.85076648382e-10
2.66566405966e-11
2.69246954688e-10
2.19125110293e-11
2.56137798596e-10
1.80728064137e-11
2.45282409374e-10
1.49175166707e-11
2.36317939318e-10
1.22874073714e-11
2.28959806441e-10
1.00650654297e-11
2.22983167907e-10
8.16233578134e-12
2.18209421477e-10
6.51187025147e-12
2.14496267746e-10
5.06135136875e-12
2.11730313914e-10
3.76948002162e-12
2.0982151051e-10
2.60314345669e-12
2.08698923919e-10
1.53538556355e-12
2.08307493754e-10
5.43931066513e-13
2.08605522925e-10
-3.89901346955e-13
2.0956271673e-10
-1.28200606383e-12
2.11158635352e-10
-2.14609451836e-12
2.13381460966e-10
-2.99415322735e-12
2.16226998813e-10
-3.83678511981e-12
2.19697848325e-10
-4.68345752092e-12
2.23802689776e-10
-5.54267290731e-12
2.28555639122e-10
-6.42207184384e-12
2.33975625483e-10
-7.32847236739e-12
2.40085747337e-10
-8.26784655669e-12
2.46912561036e-10
-9.24523204572e-12
2.54485254089e-10
-1.02645745958e-11
2.62834651753e-10
-1.13284969402e-11
2.71992004991e-10
-1.24379902016e-11
2.81987507096e-10
-1.35920270361e-11
2.92848492603e-10
-1.47871019056e-11
3.04597282497e-10
-1.60167134405e-11
3.17248662554e-10
-1.72708181595e-11
3.30807013641e-10
-1.85353028409e-11
3.45263161397e-10
-1.9791544083e-11
3.60591070962e-10
-2.10161436931e-11
3.76744581692e-10
-2.2180942584e-11
3.93654440812e-10
-2.32534145869e-11
4.11225944431e-10
-2.41975169931e-11
4.29337503077e-10
-2.49750188811e-11
4.47840405095e-10
-2.55472430283e-11
4.66559937764e-10
-2.58770542823e-11
4.85297859182e-10
-2.59308368886e-11
5.0383602135e-10
-2.56801662817e-11
5.21940795293e-10
-2.51029399937e-11
5.39367901628e-10
-2.41838973054e-11
5.55867347726e-10
-2.29146774959e-11
5.7118837016e-10
-2.12937285377e-11
5.85084495316e-10
-1.93263987221e-11
5.97318991587e-10
-1.70254765016e-11
6.07671127845e-10
-1.44124213306e-11
6.15943731324e-10
-1.15194422234e-11
6.21972277393e-10
-8.39202501127e-12
6.25634834645e-10
-5.09047687084e-12
6.26860980815e-10
-1.68856410981e-12
6.25637261157e-10
1.73163866036e-12
6.22007473287e-10
5.08759917025e-12
6.16067574054e-10
8.30450526309e-12
6.07956480646e-10
1.1321470414e-11
5.97845083143e-10
1.40941263882e-11
5.85925936748e-10
1.65933929366e-11
5.72405224335e-10
1.88018185405e-11
5.57497290283e-10
2.0709525158e-11
5.41421151381e-10
2.23111466367e-11
5.24398125471e-10
2.36041561565e-11
5.06649763803e-10
2.45884764578e-11
4.88395417179e-10
2.52671311452e-11
4.69849024407e-10
2.56475249825e-11
4.51215106201e-10
2.57427456532e-11
4.3268433072e-10
2.55722904392e-11
4.14429238929e-10
2.51618811025e-11
3.96600714235e-10
2.45423751055e-11
3.79325617741e-10
2.37480364044e-11
3.62705773769e-10
2.28145314331e-11
3.46818271137e-10
2.17769906582e-11
3.31716879844e-10
2.06683816022e-11
3.17434294777e-10
1.95183243556e-11
3.03984891544e-10
1.83523789955e-11
2.91367706959e-10
1.71917605315e-11
2.7956940815e-10
1.60533957842e-11
2.68567081423e-10
1.49502221915e-11
2.58330732403e-10
1.38916341671e-11
2.48825444451e-10
1.28839984073e-11
2.40013180483e-10
1.19311799478e-11
2.31854243457e-10
1.10350397811e-11
2.2430842541e-10
1.01958814668e-11
2.17335885786e-10
9.41283609114e-12
2.10897799913e-10
8.68418381048e-12
2.04956819514e-10
8.00761514184e-12
1.99477381117e-10
7.38043848513e-12
1.9442589588e-10
6.79974120375e-12
1.89770846955e-10
6.26251217152e-12
1.85482818068e-10
5.76573282251e-12
1.81534470134e-10
5.30644338602e-12
1.77900481321e-10
4.88178968307e-12
1.74557460163e-10
4.48905541978e-12
1.71483841016e-10
4.12568370274e-12
1.68659766266e-10
3.78929127762e-12
1.66066960251e-10
3.47767803849e-12
1.63688595522e-10
3.188834421e-12
1.61509153136e-10
2.92094862604e-12
1.59514274528e-10
2.67241598967e-12
1.57690603653e-10
2.44185246023e-12
1.56025613813e-10
2.22811486534e-12
1.54507414312e-10
2.0303307003e-12
1.53124527283e-10
1.84794139371e-12
1.5186562492e-10
1.68076368523e-12
1.5071921166e-10
1.5290757819e-12
1.49673235037e-10
1.39373661633e-12
1.48714603453e-10
1.27634956933e-12
1.47828591696e-10
1.17948405949e-12
1.46998121428e-10
1.10696903635e-12
1.4620294036e-10
1.06426251822e-12
1.45418820665e-10
1.05885990482e-12
1.44617166868e-10
1.10055873914e-12
1.43766128133e-10
1.20091776068e-12
1.4283605261e-10
1.36969380147e-12
1.41817705861e-10
1.59957172282e-12
1.81072771265e-12
9.76214866025e-10
1.90041567359e-10
9.63006416798e-10
3.06402841875e-10
9.06210850629e-10
3.00055240601e-10
8.3399921388e-10
2.57841820567e-10
7.613647062e-10
2.12210094439e-10
6.94713286682e-10
1.72332392597e-10
6.36109276389e-10
1.39770227788e-10
5.85651081101e-10
1.13788398034e-10
5.4265068961e-10
9.31529032698e-11
5.06183098983e-10
7.66989522943e-11
4.75324867361e-10
6.34731608902e-11
4.4924575648e-10
5.27357520945e-11
4.27233986796e-10
4.39242812599e-11
4.08693491919e-10
3.66133017862e-11
3.93130920606e-10
3.04800883825e-11
3.80140245898e-10
2.52780824047e-11
3.69388201652e-10
2.08171098789e-11
3.606016538e-10
1.69488837453e-11
3.53557094238e-10
1.35564297826e-11
3.48072082698e-10
1.05463627707e-11
3.43998346885e-10
7.84321553789e-12
3.41216244377e-10
5.3852455491e-12
3.39630320642e-10
3.12130871427e-12
3.39165741293e-10
1.00850971377e-12
3.39765416515e-10
-9.89577435517e-13
3.41387669011e-10
-2.90425952909e-12
3.44004328782e-10
-4.76275539739e-12
3.47599160641e-10
-6.58898625396e-12
3.5216654071e-10
-8.40416644044e-12
3.57710312762e-10
-1.0227230807e-11
3.64242761211e-10
-1.20751225781e-11
3.71783643169e-10
-1.39629548846e-11
3.80359221875e-10
-1.59040520025e-11
3.90001244789e-10
-1.79098700915e-11
4.00745805945e-10
-1.99897934781e-11
4.12632031141e-10
-2.21507995414e-11
4.25700520458e-10
-2.43969854256e-11
4.3999148383e-10
-2.67289519547e-11
4.5554250663e-10
-2.91430473632e-11
4.72385893308e-10
-3.16304850339e-11
4.90545553281e-10
-3.41763687125e-11
5.10033425465e-10
-3.67586842633e-11
5.30845480804e-10
-3.93473506483e-11
5.52957405323e-10
-4.19034593874e-11
5.76320139945e-10
-4.43788673607e-11
6.00855539777e-10
-4.67163294986e-11
6.26452493817e-10
-4.88503537247e-11
6.52963906058e-10
-5.07089121633e-11
6.80204947701e-10
-5.22160413409e-11
7.07952934515e-10
-5.32952084646e-11
7.35949040528e-10
-5.3873136943e-11
7.63901848824e-10
-5.3883619961e-11
7.91492492888e-10
-5.32707837211e-11
8.1838094422e-10
-5.19913636572e-11
8.44212931204e-10
-5.00158563274e-11
8.68627095373e-10
-4.73288140111e-11
8.91262244485e-10
-4.39288512873e-11
9.11764819591e-10
-3.98289495252e-11
9.29796843954e-10
-3.50574797436e-11
9.4504475806e-10
-2.96603183207e-11
9.57229706708e-10
-2.37043788634e-11
9.66119657641e-10
-1.72819696867e-11
9.71542599576e-10
-1.05134190455e-11
9.73398372727e-10
-3.54434408722e-12
9.71665900301e-10
3.46409762568e-12
9.66403600734e-10
1.03498793082e-11
9.57742762396e-10
1.6965318833e-11
9.45875525019e-10
2.31886788101e-11
9.31040445864e-10
2.89291731728e-11
9.13508874072e-10
3.41249300407e-11
8.93574170725e-10
3.87364855587e-11
8.71544061571e-10
4.27395972508e-11
8.47735315104e-10
4.61198558691e-11
8.22469736944e-10
4.8869697698e-11
7.96070568406e-10
5.09876094357e-11
7.68858497717e-10
5.24791679679e-11
7.41146767601e-10
5.3359223191e-11
7.13235362376e-10
5.36541213417e-11
6.85404755199e-10
5.34028704997e-11
6.57909972715e-10
5.26566390952e-11
6.30975714846e-10
5.14766109919e-11
6.04793051855e-10
4.99306799866e-11
5.79517921876e-10
4.80896443555e-11
5.5527138002e-10
4.60235177822e-11
5.32141344243e-10
4.37984046738e-11
5.10185472222e-10
4.14741856112e-11
4.89434767097e-10
3.91030749561e-11
4.69897540459e-10
3.67289794927e-11
4.51563421685e-10
3.43875080231e-11
4.34407184705e-10
3.21064536787e-11
4.18392238114e-10
2.99065759828e-11
4.03473695257e-10
2.78025371437e-11
3.89600990642e-10
2.58038808151e-11
3.76720050134e-10
2.39159769e-11
3.64775043665e-10
2.21408846707e-11
3.53709766259e-10
2.04781103883e-11
3.4346869584e-10
1.8925251085e-11
3.33997780038e-10
1.74785278372e-11
3.25244998052e-10
1.61332172386e-11
3.17160742133e-10
1.48839938677e-11
3.09698054283e-10
1.37251966027e-11
3.02812751366e-10
1.26510322783e-11
2.96463462943e-10
1.16557281767e-11
2.90611604524e-10
1.07336444319e-11
2.85221301108e-10
9.87935500727e-12
2.80259275448e-10
9.08770551454e-12
2.75694708778e-10
8.35385396232e-12
2.71499082317e-10
7.67330052342e-12
2.67646001991e-10
7.04191066442e-12
2.64111010124e-10
6.45593645263e-12
2.60871382431e-10
5.9120395724e-12
2.57905910345e-10
5.40732052133e-12
2.55194663538e-10
4.93935762303e-12
2.52718729454e-10
4.50626087214e-12
2.50459921795e-10
4.106745175e-12
2.48400452619e-10
3.7402291844e-12
2.46522559449e-10
3.40696538714e-12
2.44808084936e-10
3.10820785603e-12
2.43238010646e-10
2.8464208043e-12
2.41791967182e-10
2.62552488543e-12
2.40447775643e-10
2.45115829264e-12
2.39181151989e-10
2.33088442723e-12
2.37965845164e-10
2.27416539254e-12
2.36774753146e-10
2.29164993544e-12
2.35583022862e-10
2.39264784352e-12
2.34374857639e-10
2.57785941504e-12
2.33154541574e-10
2.81988849252e-12
3.01642422112e-12
9.71786964698e-10
1.55754604575e-10
9.86783473684e-10
2.91406334458e-10
9.6843739449e-10
3.18401320995e-10
9.28369142432e-10
2.97910072995e-10
8.78431462777e-10
2.6214777395e-10
8.26142652751e-10
2.24621202247e-10
7.75648240511e-10
1.90264639552e-10
7.28977328267e-10
1.60459309755e-10
6.8694047267e-10
1.35189758308e-10
6.49686664513e-10
1.13952759861e-10
6.17029175487e-10
9.61306492824e-11
5.88629271303e-10
8.11356555946e-11
5.64096371666e-10
6.8457180146e-11
5.43040395786e-10
5.76692768406e-11
5.25097320604e-10
4.84231626474e-11
5.09940064133e-10
4.04353378598e-11
4.97281566795e-10
3.34756060834e-11
4.8687391855e-10
2.73565307363e-11
4.78505652198e-10
2.19246947395e-11
4.71998346358e-10
1.70536670729e-11
4.67203132995e-10
1.26384271996e-11
4.63997400462e-10
8.59097621821e-12
4.62281816008e-10
4.83689112221e-12
4.61977702957e-10
1.31262054271e-12
4.63024761288e-10
-2.0366381798e-12
4.65379092841e-10
-5.25859367276e-12
4.6901149429e-10
-8.39515961688e-12
4.73905968503e-10
-1.14834633932e-11
4.80058401494e-10
-1.45566025004e-11
4.87475355345e-10
-1.76441878268e-11
4.96172925762e-10
-2.07726962339e-11
5.06175611778e-10
-2.39656441394e-11
5.17515142018e-10
-2.72435854299e-11
5.30229199242e-10
-3.06239303559e-11
5.44359980392e-10
-3.41205774415e-11
5.59952526364e-10
-3.77433479774e-11
5.77052752448e-10
-4.14972135191e-11
5.95705110954e-10
-4.53813118679e-11
6.15949821162e-10
-4.93877582477e-11
6.3781961366e-10
-5.35002773103e-11
6.61335956586e-10
-5.7692710377e-11
6.86504766404e-10
-6.19274915973e-11
7.13311655713e-10
-6.61542361011e-11
7.41716839951e-10
-7.03086382113e-11
7.71649909366e-10
-7.43119296548e-11
8.03004769442e-10
-7.80711805671e-11
8.35635145768e-10
-8.14807190281e-11
8.69351120496e-10
-8.44248737089e-11
9.03917186132e-10
-8.6782091572e-11
9.39052243703e-10
-8.84302483605e-11
9.74431813648e-10
-8.9252687029e-11
1.00969247773e-09
-8.91442621453e-11
1.04443826753e-09
-8.80165499105e-11
1.07824845359e-09
-8.58015248146e-11
1.11068608504e-09
-8.24534621931e-11
1.14130677427e-09
-7.79494776598e-11
1.16966755629e-09
-7.22896085679e-11
1.19533596008e-09
-6.5497330299e-11
1.21789953516e-09
-5.7621034499e-11
1.23697617932e-09
-4.87369458184e-11
1.25222599075e-09
-3.89541782962e-11
1.26336547785e-09
-2.84214502783e-11
1.27018358551e-09
-1.73315263931e-11
1.27255643688e-09
-5.91720161804e-12
1.27045643488e-09
5.56408702007e-12
1.26395285904e-09
1.68534366217e-11
1.25320378423e-09
2.77143699936e-11
1.23844138296e-09
3.79510523833e-11
1.21995435689e-09
4.74161684953e-11
1.19807165735e-09
5.60075967416e-11
1.17314997044e-09
6.36581383095e-11
1.14556495358e-09
7.03245793821e-11
1.11570495685e-09
7.59798179607e-11
1.08396605646e-09
8.06085641651e-11
1.05074748014e-09
8.42061530793e-11
1.01644653957e-09
8.6780077584e-11
9.81452437369e-10
8.83532964976e-11
9.46138941927e-10
8.89675902108e-11
9.10856567865e-10
8.8685220406e-11
8.75925218261e-10
8.75879670302e-11
8.41628179658e-10
8.57736303562e-11
8.08208064347e-10
8.33507784453e-11
7.75864929602e-10
8.04327644913e-11
7.44756485113e-10
7.71319497863e-11
7.15000072591e-10
7.35548066268e-11
6.86675981239e-10
6.97982681386e-11
6.5983163135e-10
6.59474175185e-11
6.34486195965e-10
6.2074408854e-11
6.10635304393e-10
5.8238394622e-11
5.88255562675e-10
5.44861912907e-11
5.67308712499e-10
5.08534226954e-11
5.47745326913e-10
4.7365919759e-11
5.29507999196e-10
4.40412058755e-11
5.12534025293e-10
4.08899483585e-11
4.96757607314e-10
3.79173002876e-11
4.8211162347e-10
3.51240918972e-11
4.6852901658e-10
3.25078555776e-11
4.55943856418e-10
3.00636855256e-11
4.44292127876e-10
2.77849431721e-11
4.33512293857e-10
2.56638251541e-11
4.2354567496e-10
2.36918126076e-11
4.14336683401e-10
2.18600208117e-11
4.05832941498e-10
2.01594668984e-11
3.9798531088e-10
1.85812717483e-11
3.90747852404e-10
1.71168100451e-11
3.84077733703e-10
1.57578206832e-11
3.77935096228e-10
1.44964877964e-11
3.72282891711e-10
1.33255013358e-11
3.67086693849e-10
1.22381047488e-11
3.62314489942e-10
1.12281365562e-11
3.57936453851e-10
1.02900718261e-11
3.53924701236e-10
9.41906931739e-12
3.50253025337e-10
8.61102971796e-12
3.4689661199e-10
7.86267048798e-12
3.43831730985e-10
7.1716225229e-12
3.41035403122e-10
6.53655353119e-12
3.38485043718e-10
5.95732142806e-12
3.3615809071e-10
5.43515773293e-12
3.34031635584e-10
4.97287306371e-12
3.3208209728e-10
4.57506069155e-12
3.3028501318e-10
4.2482403214e-12
3.28615080748e-10
4.00081532913e-12
3.27046671974e-10
3.84257320555e-12
3.25555164395e-10
3.78315713436e-12
3.24119526082e-10
3.82828630926e-12
3.22726248379e-10
3.97113773812e-12
3.21372167523e-10
4.17397018535e-12
4.33586789036e-12
9.64012535666e-10
1.29242069429e-10
9.87954640115e-10
2.67464230042e-10
9.90344200957e-10
3.16011759695e-10
9.73259733015e-10
3.14994540167e-10
9.43637696752e-10
2.91769809106e-10
9.07513849685e-10
2.60745048028e-10
8.69072941865e-10
2.28705546004e-10
8.30953607813e-10
1.98578642404e-10
7.94705470021e-10
1.71437894663e-10
7.61163019261e-10
1.47495209155e-10
7.30710310398e-10
1.26583356631e-10
7.03457747374e-10
1.08388217052e-10
6.79356530956e-10
9.25583949243e-11
6.58271192205e-10
7.87546138731e-11
6.40024710605e-10
6.66696424298e-11
6.24426003403e-10
5.60340431408e-11
6.11286220335e-10
4.6615387105e-11
6.00428009166e-10
3.82147397309e-11
5.91690420955e-10
3.0662280625e-11
5.84931152315e-10
2.38129332346e-11
5.80027196075e-10
1.75423807835e-11
5.76874571719e-10
1.17435977403e-11
5.75387551254e-10
6.323908552e-12
5.75497633656e-10
1.20253490671e-12
5.77152417215e-10
-3.69142519084e-12
5.8031444627e-10
-8.42062638731e-12
5.84960087838e-10
-1.30408050612e-11
5.91078442654e-10
-1.76018222801e-11
5.98670283243e-10
-2.21484473498e-11
6.07747000944e-10
-2.67209099395e-11
6.18329532609e-10
-3.13552324353e-11
6.3044722963e-10
-3.60833457584e-11
6.44136624177e-10
-4.09329845868e-11
6.59440041082e-10
-4.59273517926e-11
6.76403997111e-10
-5.10845378453e-11
6.9507732437e-10
-5.64166793327e-11
7.15508950406e-10
-6.19288432683e-11
7.37745267137e-10
-6.76176317775e-11
7.61827024079e-10
-7.34695177065e-11
7.87785692835e-10
-7.94589477465e-11
8.15639270467e-10
-8.55462887058e-11
8.45387524979e-10
-9.16757456345e-11
8.77006738015e-10
-9.77734473339e-11
9.10444072923e-10
-1.03745969791e-10
9.456117883e-10
-1.09479640021e-10
9.82381625325e-10
-1.14841010702e-10
1.02057980641e-09
-1.19678891199e-10
1.05998317281e-09
-1.23828229008e-10
1.10031702504e-09
-1.27115930428e-10
1.14125517851e-09
-1.29368386093e-10
1.18242257587e-09
-1.3042006634e-10
1.22340050528e-09
-1.30122171315e-10
1.26373409767e-09
-1.28350120168e-10
1.30294142474e-09
-1.25008828246e-10
1.34052335744e-09
-1.20035370358e-10
1.37597352653e-09
-1.13399621985e-10
1.40878820081e-09
-1.05104258707e-10
1.43847630673e-09
-9.51854135608e-11
1.46456981636e-09
-8.37145239395e-11
1.48663471136e-09
-7.08018241055e-11
1.50428347373e-09
-5.66029284707e-11
1.51719084285e-09
-4.13288126477e-11
1.52511291663e-09
-2.52535996629e-11
1.52790553611e-09
-8.70982718991e-12
1.52553575865e-09
7.93385178747e-12
1.5180826542e-09
2.43065223469e-11
1.50572744832e-09
4.00695520041e-11
1.48873559829e-09
5.49428745878e-11
1.46743557452e-09
6.87161615548e-11
1.44219994955e-09
8.12431891144e-11
1.41343185453e-09
9.24261996138e-11
1.381556068e-09
1.02200331846e-10
1.34701261479e-09
1.10523237358e-10
1.31025152828e-09
1.17369617771e-10
1.27172793976e-09
1.22729710083e-10
1.23189647331e-09
1.26611514367e-10
1.19120410415e-09
1.29045638148e-10
1.15008148745e-09
1.30090181774e-10
1.10893363735e-09
1.298330478e-10
1.06813119838e-09
1.28390385753e-10
1.02800339282e-09
1.25901418042e-10
9.88833308932e-10
1.22520846787e-10
9.50855741412e-10
1.18410318642e-10
9.1425742875e-10
1.13730251134e-10
8.79179288082e-10
1.08632937835e-10
8.45720130574e-10
1.03257417866e-10
8.13941323342e-10
9.77262184096e-11
7.83871918984e-10
9.21438081118e-11
7.55513864904e-10
8.65964445949e-11
7.28847008492e-10
8.11530444003e-11
7.03833710027e-10
7.58667184413e-11
6.80422956879e-10
7.07766706215e-11
6.5855393397e-10
6.59102267535e-11
6.3815905055e-10
6.12848299047e-11
6.19166451548e-10
5.69098974431e-11
6.01502059758e-10
5.27884818179e-11
5.85091202561e-10
4.8918710798e-11
5.69859880016e-10
4.52950059739e-11
5.55735728554e-10
4.19090923652e-11
5.42648731264e-10
3.87508200166e-11
5.30531719555e-10
3.58088216992e-11
5.19320706002e-10
3.30710315874e-11
5.0895508152e-10
3.0525088422e-11
4.99377705387e-10
2.81586447828e-11
4.90534910736e-10
2.59596014413e-11
4.82376444585e-10
2.39162834677e-11
4.74855356633e-10
2.20175722581e-11
4.67927848598e-10
2.02530058045e-11
4.61553092061e-10
1.86128576325e-11
4.5569302127e-10
1.70882036573e-11
4.50312104419e-10
1.56709849428e-11
4.45377096279e-10
1.43540737331e-11
4.40856773021e-10
1.31313492584e-11
4.36721650506e-10
1.19977893498e-11
4.32943686687e-10
1.09495827592e-11
4.29495971144e-10
9.98426562564e-12
4.26352407111e-10
9.10088216155e-12
4.23487398034e-10
8.30016373923e-12
4.20875559506e-10
7.58470878495e-12
4.18491493457e-10
6.95912430345e-12
4.16309682966e-10
6.4300488121e-12
4.14304597091e-10
6.00589977319e-12
4.12451126764e-10
5.69604273776e-12
4.10725481104e-10
5.50880270483e-12
4.09106543323e-10
5.44722462761e-12
4.07577029207e-10
5.50065272058e-12
4.06121412724e-10
5.62958758795e-12
5.74421272445e-12
9.57658021129e-10
1.09084048824e-10
9.82937528881e-10
2.42184722052e-10
9.95855320411e-10
3.03093967714e-10
9.93653470604e-10
3.17196388691e-10
9.7946812639e-10
3.05955151512e-10
9.57392801554e-10
2.82820370835e-10
9.30872283491e-10
2.55226061963e-10
9.02434282342e-10
2.27016641422e-10
8.73812772458e-10
2.00059402393e-10
8.46141090852e-10
1.75166888579e-10
8.20123983682e-10
1.52600461573e-10
7.96170574739e-10
1.32341623709e-10
7.74491338296e-10
1.14237629004e-10
7.55166759008e-10
9.80791907085e-11
7.38195073757e-10
8.36413251234e-11
7.23525028659e-10
7.07040855644e-11
7.11078089244e-10
5.90623237129e-11
7.00763312192e-10
4.85295138346e-11
6.92487154028e-10
3.89384356784e-11
6.86159811499e-10
3.01402724828e-11
6.81699201849e-10
2.20029869631e-11
6.79033348369e-10
1.44094475494e-11
6.78101696319e-10
7.25555671269e-12
6.78855716956e-10
4.48510156467e-13
6.81259037701e-10
-6.0947502896e-12
6.85287254889e-10
-1.24488481678e-11
6.90927549278e-10
-1.8681104289e-11
6.98178149299e-10
-2.48524273716e-11
7.0704767714e-10
-3.10179804863e-11
7.17554388725e-10
-3.72276270117e-11
7.29725301176e-10
-4.35261505367e-11
7.43595187842e-10
-4.99532381824e-11
7.59205409211e-10
-5.6543211766e-11
7.76602538244e-10
-6.33244865998e-11
7.95836729631e-10
-7.03187348843e-11
8.16959775256e-10
-7.75397303693e-11
8.40022782296e-10
-8.49918553608e-11
8.65073407925e-10
-9.26682619507e-11
8.92152586196e-10
-1.00548699868e-10
9.21290691683e-10
-1.08597056294e-10
9.52503103082e-10
-1.16758702175e-10
9.85785163282e-10
-1.24957806722e-10
1.0211065837e-09
-1.33094867285e-10
1.05840541541e-09
-1.41044799481e-10
1.09758180834e-09
-1.48656029199e-10
1.13849190109e-09
-1.55751097785e-10
1.18094231473e-09
-1.62129297071e-10
1.22468584086e-09
-1.67571745101e-10
1.2694189789e-09
-1.71849056038e-10
1.31478194263e-09
-1.74731334887e-10
1.36036157717e-09
-1.75999683458e-10
1.40569728622e-09
-1.7545786054e-10
1.45028959593e-09
-1.72942407915e-10
1.49361049983e-09
-1.68329708446e-10
1.53511446892e-09
-1.61539314598e-10
1.57424924072e-09
-1.52534368504e-10
1.61046621592e-09
-1.41321209044e-10
1.6432309035e-09
-1.27950077609e-10
1.67203365642e-09
-1.12517255667e-10
1.69640055068e-09
-9.51687005784e-11
1.71590554711e-09
-7.61079116625e-11
1.7301872912e-09
-5.56105491585e-11
1.73897201606e-09
-3.40383235082e-11
1.74209697956e-09
-1.18347968114e-11
1.73952511456e-09
1.05057035154e-11
1.73134593579e-09
3.24856812529e-11
1.71776333581e-09
5.36521266509e-11
1.69907342409e-09
7.36327568724e-11
1.67563850373e-09
9.21510496964e-11
1.64786515795e-09
1.09016500958e-10
1.61619039932e-09
1.2410092343e-10
1.58107366224e-09
1.3731703398e-10
1.54299104209e-09
1.48605823093e-10
1.50243038075e-09
1.57930245877e-10
1.45988666046e-09
1.65273398824e-10
1.41585642932e-09
1.70641716086e-10
1.37083001662e-09
1.74072023833e-10
1.32528155931e-09
1.75638614634e-10
1.2796581033e-09
1.75456481935e-10
1.23436943933e-09
1.73679030367e-10
1.18978000577e-09
1.70490834662e-10
1.14620359157e-09
1.66097246366e-10
1.10390100496e-09
1.60712892803e-10
1.06308045274e-09
1.54550792945e-10
1.02390011915e-09
1.47813262868e-10
9.86472327432e-10
1.40685202689e-10
9.50868675379e-10
1.33329864997e-10
9.17125618267e-10
1.25886860977e-10
8.85250087706e-10
1.18471971884e-10
8.55224855138e-10
1.11178274469e-10
8.27013454534e-10
1.04078117102e-10
8.00564564488e-10
9.72255591139e-11
7.75815812418e-10
9.06589774918e-11
7.52697007284e-10
8.44036338154e-11
7.31132834253e-10
7.84740692416e-11
7.11045060729e-10
7.28762540375e-11
6.92354309831e-10
6.76094602508e-11
6.74981459296e-10
6.26678548985e-11
6.58848721169e-10
5.80418286795e-11
6.43880453784e-10
5.37190853916e-11
6.30003751733e-10
4.96855215248e-11
6.17148854236e-10
4.59259266669e-11
6.05249406123e-10
4.24245339167e-11
5.942426008e-10
3.91654473185e-11
5.8406922909e-10
3.6132970193e-11
5.74673654023e-10
3.33118554396e-11
5.66003727234e-10
3.06874958158e-11
5.58010659851e-10
2.8246069858e-11
5.50648857363e-10
2.5974656694e-11
5.43875726158e-10
2.38613313777e-11
5.37651456916e-10
2.18952506494e-11
5.3193878913e-10
2.0066737973e-11
5.26702759501e-10
1.8367375342e-11
5.21910437023e-10
1.67901083298e-11
5.17530647329e-10
1.53293690176e-11
5.13533690551e-10
1.3981219086e-11
5.09891058765e-10
1.27435107749e-11
5.06575163585e-10
1.16160559577e-11
5.03559089866e-10
1.06007798006e-11
5.00816400103e-10
9.70181171614e-12
4.98321023269e-10
8.92542372708e-12
4.96047270006e-10
8.27965167425e-12
4.93970009078e-10
7.77330294548e-12
4.92064982125e-10
7.41382964782e-12
4.90309012859e-10
7.20319454688e-12
4.8867919568e-10
7.13047088197e-12
4.87148617442e-10
7.16016679141e-12
7.21820358774e-12
9.5306963694e-10
9.35144114428e-11
9.76973177271e-10
2.18281180552e-10
9.94813661775e-10
2.85253481614e-10
1.00185399541e-09
3.10156053168e-10
9.98707112229e-10
3.09102032466e-10
9.87770709926e-10
2.93756770751e-10
9.71577504823e-10
2.71419264628e-10
9.52252484743e-10
2.46341659053e-10
9.31420991566e-10
2.20890893112e-10
9.10265665675e-10
1.96322211989e-10
8.89617240343e-10
1.73248884384e-10
8.70040564558e-10
1.51918296914e-10
8.51905480923e-10
1.32372709982e-10
8.35441917843e-10
1.1454275104e-10
8.20781465108e-10
9.83017750028e-11
8.07988208502e-10
8.34973391941e-11
7.97081328762e-10
6.9969200341e-11
7.88051509317e-10
5.75593300174e-11
7.80872746248e-10
4.61171953215e-11
7.75510772221e-10
3.55022429034e-11
7.71929002035e-10
2.55847533474e-11
7.70092672583e-10
1.62457729889e-11
7.69971671819e-10
7.3765532373e-12
7.71542417988e-10
-1.12224049206e-12
7.7478904046e-10
-9.34137749186e-12
7.79704059384e-10
-1.73638720811e-11
7.86288699597e-10
-2.52657497503e-11
7.94552911442e-10
-3.31166447209e-11
8.04515158888e-10
-4.09802336773e-11
8.16202005791e-10
-4.89144798806e-11
8.2964751119e-10
-5.69716620837e-11
8.44892428033e-10
-6.51981613091e-11
8.61983185805e-10
-7.36339758926e-11
8.80970625353e-10
-8.23119324938e-11
9.01908443403e-10
-9.1256559174e-11
9.24851294875e-10
-1.00482587863e-10
9.49852493296e-10
-1.09993059452e-10
9.76961244433e-10
-1.19777018262e-10
1.00621934697e-09
-1.29806806926e-10
1.03765729916e-09
-1.40035012174e-10
1.07128976488e-09
-1.50391170574e-10
1.10711038152e-09
-1.60778424863e-10
1.1450859407e-09
-1.71070426583e-10
1.18515004731e-09
-1.81108904634e-10
1.22719646805e-09
-1.90702446722e-10
1.27107251703e-09
-1.99627141602e-10