/*--------------------------------*- C++ -*----------------------------------*\
  =========                 |
  \\      /  F ield         | OpenFOAM: The Open Source CFD Toolbox
   \\    /   O peration     | Website:  https://openfoam.org
    \\  /    A nd           | Version:  7
     \\/     M anipulation  |
\*---------------------------------------------------------------------------*/
FoamFile
{
    version     2.0;
    format      ascii;
    class       volScalarField;
    location    "1260";
    object      Ci;
}
// * * * * * * * * * * * * * * * * * * * * * * * * * * * * * * * * * * * * * //

dimensions      [0 -3 0 0 1 0 0];

internalField   nonuniform List<scalar> 
8192
(
9.99999999006
10.0000000349
10.0000001064
10.0000002088
10.0000003503
10.0000005252
10.0000007264
10.0000009475
10.0000011844
10.0000014331
10.0000016911
10.0000019551
10.0000022227
10.0000024905
10.0000027563
10.0000030163
10.0000032684
10.0000035086
10.000003735
10.0000039434
10.0000041322
10.0000042976
10.0000044378
10.0000045486
10.0000046283
10.0000046727
10.0000046806
10.0000046477
10.0000045734
10.0000044539
10.0000042891
10.0000040754
10.0000038134
10.0000034994
10.0000031348
10.0000027165
10.000002247
10.0000017237
10.0000011503
10.0000005253
9.9999998538
9.99999913517
9.99999837645
9.99999757783
9.99999674818
9.99999588851
9.99999500942
9.99999411269
9.99999321071
9.99999230622
9.99999141392
9.99999053813
9.99998969665
9.99998889617
9.99998815817
9.99998749188
9.99998692207
9.99998645936
9.99998612951
9.99998594111
9.99998591615
9.999986056
9.99998637403
9.99998686175
9.99998752417
9.99998834647
9.99998932969
9.99999045598
9.99999172266
9.99999310713
9.99999460085
9.9999961762
9.9999978204
9.99999950413
10.0000012139
10.0000029218
10.0000046162
10.0000062725
10.0000078821
10.0000094247
10.0000108954
10.0000122786
10.0000135733
10.0000147687
10.0000158674
10.0000168625
10.0000177597
10.0000185555
10.0000192573
10.0000198641
10.0000203847
10.0000208192
10.000021177
10.0000214588
10.0000216741
10.0000218236
10.0000219159
10.000021951
10.0000219372
10.0000218745
10.0000217709
10.0000216266
10.0000214492
10.0000212387
10.0000210024
10.0000207399
10.000020458
10.0000201559
10.0000198398
10.0000195085
10.0000191675
10.0000188149
10.0000184558
10.0000180875
10.0000177143
10.0000173328
10.0000169465
10.000016551
10.0000161488
10.0000157347
10.0000153105
10.0000148711
10.0000144198
10.0000139546
10.0000134847
10.0000130219
10.0000125996
10.0000123055
10.0000000013
10.0000000614
10.0000001335
10.0000002277
10.0000003515
10.0000005042
10.000000683
10.0000008843
10.0000011046
10.0000013399
10.0000015872
10.0000018427
10.0000021038
10.000002367
10.0000026298
10.0000028886
10.0000031411
10.0000033835
10.0000036136
10.0000038277
10.0000040238
10.000004199
10.0000043509
10.0000044755
10.0000045708
10.0000046331
10.0000046608
10.0000046502
10.0000046003
10.0000045078
10.0000043727
10.0000041915
10.0000039642
10.0000036877
10.0000033629
10.000002987
10.0000025619
10.0000020855
10.0000015608
10.0000009863
10.0000003665
9.99999970102
9.99999899575
9.99999825124
9.99999747514
9.99999666893
9.99999584192
9.99999499654
9.99999414392
9.9999932877
9.99999244121
9.9999916098
9.99999080958
9.9999900481
9.99998934447
9.99998870832
9.99998816104
9.99998771312
9.99998738601
9.99998718814
9.99998713716
9.99998723547
9.99998749345
9.99998790575
9.9999884759
9.9999891933
9.99999005762
9.99999105522
9.99999218219
9.99999342079
9.99999476236
9.99999618513
9.99999767708
9.99999921474
10.0000007852
10.0000023655
10.0000039438
10.0000054989
10.0000070211
10.0000084923
10.0000099055
10.0000112464
10.0000125113
10.0000136898
10.0000147817
10.0000157804
10.0000166886
10.0000175029
10.0000182284
10.0000188639
10.0000194161
10.0000198854
10.0000202793
10.000020599
10.0000208523
10.0000210406
10.0000211706
10.0000212429
10.0000212644
10.0000212361
10.0000211649
10.000021052
10.0000209038
10.0000207215
10.0000205112
10.0000202735
10.0000200145
10.000019734
10.0000194377
10.000019125
10.0000188009
10.0000184643
10.0000181194
10.0000177647
10.0000174036
10.0000170339
10.0000166582
10.0000162734
10.0000158811
10.0000154772
10.000015063
10.0000146341
10.0000141924
10.0000137353
10.0000132664
10.0000127981
10.0000123528
10.000012009
10.000000003
10.000000076
10.0000001525
10.0000002388
10.000000344
10.0000004703
10.0000006188
10.0000007885
10.0000009785
10.0000011862
10.0000014095
10.000001645
10.0000018903
10.0000021416
10.0000023964
10.0000026509
10.0000029029
10.0000031482
10.0000033851
10.0000036094
10.0000038195
10.0000040115
10.000004184
10.0000043331
10.0000044574
10.0000045529
10.0000046187
10.0000046508
10.0000046488
10.0000046088
10.0000045311
10.0000044118
10.0000042519
10.0000040477
10.0000038007
10.0000035078
10.0000031714
10.0000027885
10.0000023629
10.0000018922
10.0000013816
10.0000008293
10.0000002422
9.99999961919
9.99999896901
9.99999829117
9.99999759616
9.9999968841
9.99999616717
9.99999544603
9.99999473465
9.99999403441
9.99999336124
9.99999271744
9.99999212099
9.9999915751
9.99999109936
9.99999069727
9.9999903887
9.99999017572
9.99999007601
9.99999008771
9.99999022378
9.99999047706
9.99999085561
9.99999134853
9.99999196099
9.99999268019
9.99999350876
9.99999443133
9.99999544702
9.99999653778
9.99999769986
9.99999891387
10.0000001745
10.0000014621
10.0000027707
10.0000040811
10.000005387
10.0000066704
10.0000079259
10.0000091374
10.000010301
10.0000114035
10.0000124435
10.0000134108
10.0000143065
10.0000151235
10.0000158655
10.000016528
10.0000171164
10.0000176283
10.0000180705
10.0000184418
10.0000187497
10.0000189938
10.0000191815
10.0000193123
10.0000193936
10.000019425
10.0000194138
10.0000193596
10.0000192697
10.0000191436
10.0000189883
10.000018803
10.0000185945
10.0000183618
10.000018111
10.0000178408
10.0000175569
10.0000172575
10.0000169479
10.0000166257
10.0000162956
10.0000159545
10.0000156066
10.0000152481
10.0000148822
10.0000145042
10.000014117
10.0000137155
10.000013303
10.0000128764
10.0000124334
10.0000119867
10.0000115293
10.0000111997
10.000000002
10.0000000866
10.0000001657
10.0000002524
10.0000003534
10.0000004697
10.0000006012
10.0000007495
10.0000009148
10.0000010963
10.000001293
10.000001503
10.0000017243
10.0000019542
10.0000021902
10.0000024291
10.0000026684
10.0000029048
10.0000031357
10.0000033578
10.0000035688
10.0000037656
10.000003946
10.0000041071
10.0000042469
10.0000043627
10.0000044525
10.0000045141
10.0000045455
10.0000045449
10.0000045106
10.0000044414
10.0000043356
10.0000041928
10.0000040116
10.0000037922
10.0000035339
10.0000032372
10.0000029029
10.0000025316
10.0000021257
10.0000016863
10.0000012175
10.000000721
10.0000002024
9.99999966421
9.99999911326
9.99999855249
9.99999798969
9.99999742816
9.99999687629
9.99999633768
9.99999582129
9.99999533113
9.99999487691
9.99999446326
9.99999410064
9.99999379425
9.99999355479
9.99999338707
9.99999330048
9.9999932974
9.99999338366
9.99999355752
9.99999382083
9.99999416873
9.99999460114
9.99999511203
9.99999570017
9.99999635785
9.99999708191
9.99999786302
9.99999869699
9.99999957402
10.0000004898
10.0000014344
10.0000024033
10.0000033864
10.0000043786
10.0000053695
10.0000063536
10.0000073204
10.0000082649
10.0000091773
10.0000100533
10.0000108849
10.0000116692
10.0000124
10.0000130764
10.0000136942
10.0000142543
10.0000147542
10.0000151964
10.0000155798
10.0000159079
10.0000161809
10.0000164027
10.0000165739
10.0000166988
10.0000167782
10.0000168164
10.0000168145
10.0000167767
10.0000167042
10.000016601
10.0000164683
10.00001631
10.000016127
10.0000159231
10.0000156987
10.0000154575
10.0000151995
10.000014928
10.0000146428
10.0000143465
10.0000140387
10.0000137214
10.0000133936
10.0000130567
10.000012709
10.000012351
10.0000119809
10.0000115984
10.0000112053
10.0000107953
10.0000103965
10.0000099345
10.0000097483
10.0000000064
10.0000001027
10.0000001933
10.0000002838
10.000000384
10.0000004956
10.0000006193
10.0000007542
10.0000009025
10.000001064
10.0000012382
10.0000014241
10.0000016202
10.0000018245
10.000002035
10.0000022492
10.0000024647
10.0000026788
10.0000028889
10.0000030923
10.0000032867
10.0000034692
10.0000036377
10.0000037898
10.0000039231
10.0000040361
10.0000041259
10.0000041922
10.0000042311
10.0000042441
10.0000042259
10.0000041804
10.0000041006
10.000003993
10.0000038491
10.0000036773
10.0000034692
10.0000032334
10.0000029637
10.0000026672
10.0000023416
10.0000019914
10.0000016185
10.0000012258
10.0000008178
10.0000003971
9.9999999692
9.99999953682
9.99999910599
9.99999867925
9.99999826272
9.99999785881
9.99999747385
9.99999711042
9.99999677541
9.99999647209
9.99999620833
9.99999598829
9.99999582065
9.99999570982
9.99999566383
9.99999568512
9.99999577847
9.99999594211
9.99999617653
9.99999647651
9.99999684035
9.9999972617
9.9999977379
9.99999826142
9.99999882828
9.9999994303
10.0000000635
10.0000007206
10.0000013986
10.0000020913
10.0000027966
10.0000035089
10.000004226
10.0000049425
10.0000056559
10.0000063604
10.0000070532
10.0000077286
10.0000083837
10.000009013
10.000009614
10.000010182
10.0000107152
10.0000112101
10.0000116657
10.0000120797
10.0000124522
10.0000127818
10.0000130696
10.000013315
10.0000135199
10.0000136844
10.0000138108
10.0000138994
10.000013953
10.0000139721
10.0000139596
10.0000139162
10.0000138447
10.0000137461
10.000013623
10.0000134764
10.0000133089
10.0000131212
10.000012916
10.0000126937
10.0000124566
10.0000122052
10.0000119416
10.0000116656
10.0000113793
10.0000110822
10.0000107756
10.0000104589
10.0000101321
10.0000097952
10.0000094452
10.00000909
10.0000087083
10.00000837
10.0000078991
10.000007856
10.0000000063
10.0000001106
10.000000206
10.0000003033
10.0000004089
10.000000523
10.0000006457
10.000000777
10.0000009164
10.0000010652
10.0000012236
10.0000013907
10.0000015656
10.0000017466
10.0000019322
10.0000021202
10.0000023087
10.0000024955
10.0000026782
10.0000028547
10.0000030226
10.0000031803
10.0000033248
10.0000034556
10.0000035687
10.0000036657
10.0000037401
10.0000037976
10.0000038269
10.0000038407
10.0000038198
10.0000037866
10.0000037121
10.0000036298
10.0000035009
10.0000033678
10.0000031866
10.0000030021
10.0000027738
10.0000025394
10.0000022707
10.0000019921
10.0000016906
10.0000013776
10.0000010519
10.0000007174
10.0000003778
10.000000035
9.99999969333
9.99999935474
9.99999902321
9.99999870091
9.99999839197
9.99999809924
9.99999782767
9.99999758142
9.99999736677
9.99999718959
9.99999705747
9.99999697731
9.99999695644
9.99999700013
9.999997112
9.99999729221
9.99999753874
9.99999784685
9.99999821141
9.99999862584
9.99999908392
9.99999957747
10.0000000992
10.0000006404
10.0000011949
10.0000017558
10.0000023192
10.0000028802
10.000003437
10.0000039861
10.0000045267
10.0000050561
10.0000055739
10.0000060777
10.0000065672
10.0000070397
10.0000074949
10.0000079303
10.0000083452
10.0000087372
10.0000091057
10.0000094485
10.0000097652
10.0000100541
10.0000103152
10.0000105469
10.0000107498
10.0000109229
10.0000110671
10.0000111817
10.0000112681
10.000011326
10.0000113569
10.000011361
10.0000113399
10.0000112938
10.0000112246
10.0000111328
10.00001102
10.000010887
10.0000107355
10.000010566
10.0000103804
10.0000101792
10.0000099641
10.0000097355
10.0000094952
10.0000092433
10.0000089814
10.0000087096
10.0000084288
10.0000081393
10.0000078403
10.0000075346
10.0000072143
10.0000068988
10.0000065424
10.0000062656
10.0000057903
10.0000058417
10.0000000095
10.0000001203
10.0000002252
10.0000003273
10.0000004355
10.0000005508
10.0000006731
10.0000008019
10.0000009371
10.0000010778
10.0000012252
10.0000013787
10.0000015373
10.0000016998
10.0000018645
10.00000203
10.0000021942
10.0000023557
10.0000025119
10.0000026622
10.000002803
10.0000029353
10.0000030535
10.000003162
10.0000032506
10.0000033311
10.0000033836
10.0000034336
10.0000034435
10.0000034623
10.0000034237
10.0000034122
10.0000033208
10.0000032793
10.0000031347
10.000003061
10.0000028692
10.000002757
10.0000025298
10.0000023717
10.0000021226
10.0000019159
10.0000016536
10.0000014056
10.0000011326
10.0000008577
10.0000005749
10.0000002878
9.99999999951
9.99999971104
9.99999942558
9.99999914518
9.999998873
9.99999861234
9.99999836746
9.9999981433
9.99999794587
9.99999778214
9.99999766003
9.99999758801
9.99999757441
9.99999762621
9.99999774792
9.99999794054
9.99999820177
9.9999985264
9.99999890784
9.99999933826
9.99999980932
10.0000003114
10.0000008347
10.0000013696
10.0000019078
10.0000024418
10.0000029663
10.0000034767
10.0000039699
10.0000044434
10.0000048959
10.0000053262
10.0000057339
10.0000061187
10.0000064808
10.0000068203
10.0000071377
10.0000074331
10.000007707
10.0000079596
10.0000081911
10.0000084018
10.0000085918
10.000008761
10.0000089095
10.0000090371
10.000009144
10.0000092301
10.0000092953
10.0000093399
10.0000093639
10.0000093675
10.0000093511
10.000009315
10.0000092598
10.0000091858
10.0000090938
10.0000089843
10.0000088582
10.000008716
10.0000085587
10.0000083869
10.0000082017
10.0000080037
10.0000077939
10.000007573
10.000007342
10.0000071016
10.0000068526
10.0000065957
10.0000063311
10.0000060606
10.0000057812
10.0000054998
10.0000052013
10.0000049198
10.0000045825
10.0000043569
10.0000038899
10.0000039847
10.0000000075
10.0000001214
10.0000002276
10.0000003352
10.0000004493
10.0000005693
10.0000006945
10.0000008245
10.0000009589
10.0000010968
10.0000012381
10.0000013829
10.0000015305
10.0000016797
10.0000018291
10.0000019775
10.0000021228
10.0000022646
10.0000023996
10.0000025293
10.0000026476
10.0000027605
10.0000028557
10.0000029491
10.0000030143
10.000003088
10.0000031149
10.0000031722
10.0000031502
10.0000031989
10.0000031151
10.0000031658
10.0000030075
10.0000030694
10.0000028306
10.0000029032
10.0000025935
10.0000026579
10.0000023084
10.0000023284
10.0000019824
10.0000019218
10.0000016117
10.0000014597
10.0000011876
10.0000009664
10.0000007104
10.0000004552
10.0000001961
9.99999993079
9.99999966671
9.99999940267
9.99999914318
9.99999889096
9.99999865047
9.99999842677
9.999998226
9.99999805596
9.99999792531
9.99999784454
9.99999782352
9.99999787211
9.99999799615
9.99999819854
9.99999847631
9.99999882403
9.9999992328
9.99999969343
10.0000001949
10.0000007255
10.000001273
10.0000018254
10.0000023737
10.0000029085
10.0000034264
10.0000039215
10.0000043902
10.0000048294
10.000005238
10.0000056146
10.0000059599
10.0000062741
10.0000065588
10.000006815
10.000007045
10.0000072493
10.0000074297
10.0000075869
10.0000077228
10.000007838
10.0000079341
10.0000080115
10.0000080715
10.0000081142
10.0000081404
10.0000081503
10.0000081443
10.0000081224
10.0000080852
10.0000080325
10.0000079648
10.0000078821
10.000007785
10.0000076734
10.0000075482
10.0000074093
10.0000072577
10.0000070935
10.0000069176
10.0000067303
10.0000065326
10.0000063249
10.0000061081
10.0000058827
10.0000056497
10.0000054095
10.000005163
10.0000049111
10.0000046533
10.0000043926
10.0000041241
10.0000038588
10.0000035741
10.0000033173
10.0000029942
10.000002803
10.000002355
10.0000024561
10.0000000104
10.0000001289
10.0000002423
10.0000003527
10.0000004682
10.0000005894
10.0000007157
10.0000008461
10.0000009799
10.0000011165
10.0000012543
10.0000013938
10.000001534
10.0000016742
10.0000018125
10.0000019488
10.0000020799
10.0000022077
10.000002326
10.0000024416
10.0000025413
10.0000026428
10.0000027171
10.000002806
10.0000028453
10.0000029284
10.0000029179
10.0000030103
10.0000029267
10.000003055
10.0000028634
10.0000030658
10.0000027233
10.0000030414
10.0000025111
10.0000029683
10.0000022475
10.0000028164
10.0000019687
10.0000025487
10.0000017068
10.0000021498
10.0000014594
10.0000016524
10.0000011799
10.0000011225
10.0000008152
10.0000006064
10.0000003594
10.0000001033
9.99999985523
9.99999959726
9.99999934462
9.99999909521
9.99999885411
9.99999862586
9.99999841609
9.9999982334
9.99999808708
9.99999798941
9.99999795242
9.99999798862
9.9999981065
9.99999831041
9.99999859807
9.99999896307
9.99999939524
9.99999988313
10.0000004135
10.0000009722
10.0000015446
10.0000021174
10.0000026827
10.0000032303
10.0000037526
10.0000042443
10.0000047013
10.0000051216
10.0000055039
10.0000058484
10.0000061554
10.0000064266
10.0000066633
10.0000068682
10.0000070429
10.0000071905
10.0000073123
10.0000074119
10.0000074888
10.0000075449
10.0000075813
10.0000075996
10.0000076007
10.0000075859
10.0000075558
10.0000075114
10.0000074529
10.000007381
10.0000072958
10.000007198
10.0000070875
10.000006965
10.0000068304
10.0000066843
10.0000065268
10.0000063587
10.00000618
10.0000059916
10.0000057937
10.000005587
10.0000053721
10.0000051497
10.0000049202
10.0000046846
10.0000044433
10.0000041973
10.0000039469
10.0000036936
10.0000034361
10.0000031788
10.0000029145
10.0000026582
10.0000023812
10.0000021402
10.0000018279
10.0000016563
10.0000012329
10.0000013188
10.0000000079
10.0000001287
10.0000002426
10.0000003573
10.0000004777
10.0000006031
10.0000007326
10.0000008655
10.0000010007
10.0000011376
10.0000012747
10.0000014118
10.0000015477
10.0000016825
10.0000018134
10.0000019419
10.0000020627
10.0000021816
10.000002287
10.0000023946
10.0000024786
10.0000025767
10.0000026301
10.0000027264
10.0000027338
10.0000028465
10.0000027795
10.0000029448
10.0000027527
10.0000030353
10.0000026346
10.000003136
10.0000024059
10.0000032592
10.0000020608
10.0000033929
10.0000016301
10.0000034761
10.0000012003
10.0000033946
10.0000008949
10.0000030324
10.0000007902
10.0000023757
10.0000008132
10.0000015728
10.0000007645
10.0000008401
10.0000004938
10.0000002608
10.0000000349
9.99999975789
9.99999951418
9.99999925404
9.99999900214
9.99999875689
9.99999852497
9.99999831477
9.99999813693
9.9999980065
9.99999793893
9.99999795306
9.99999806087
9.99999826898
9.99999857346
9.99999896689
9.99999943736
9.99999997115
10.0000005528
10.0000011622
10.000001783
10.0000024004
10.0000029999
10.00000357
10.0000041028
10.000004593
10.0000050382
10.0000054371
10.0000057905
10.0000060999
10.0000063677
10.0000065963
10.0000067891
10.0000069487
10.0000070781
10.0000071803
10.0000072576
10.0000073128
10.0000073479
10.0000073647
10.0000073646
10.0000073469
10.0000073127
10.0000072631
10.0000071991
10.0000071212
10.0000070303
10.0000069267
10.0000068111
10.0000066837
10.000006545
10.0000063951
10.0000062347
10.0000060639
10.0000058832
10.000005693
10.0000054939
10.0000052864
10.0000050709
10.0000048482
10.0000046188
10.0000043833
10.0000041426
10.0000038971
10.0000036478
10.0000033953
10.00000314
10.0000028837
10.0000026247
10.0000023682
10.0000021057
10.0000018547
10.0000015828
10.0000013517
10.0000010492
10.0000008869
10.0000004898
10.0000005522
10.0000000109
10.0000001363
10.0000002571
10.0000003741
10.0000004954
10.0000006217
10.000000752
10.0000008859
10.0000010219
10.0000011594
10.0000012963
10.0000014324
10.000001566
10.0000016979
10.0000018238
10.0000019476
10.0000020607
10.0000021744
10.0000022692
10.0000023735
10.000002443
10.0000025437
10.0000025755
10.0000026879
10.0000026579
10.0000028149
10.0000026754
10.000002943
10.0000026023
10.0000031042
10.0000023977
10.0000033458
10.0000020063
10.0000037228
10.0000013759
10.0000042662
10.0000005055
10.0000049176
9.99999952176
10.000005457
9.99999872681
10.0000055082
9.99999849601
10.0000047483
9.99999897991
10.0000032707
9.99999981835
10.0000016655
10.0000003453
10.0000005257
10.0000002304
9.99999988789
9.99999971671
9.9999994009
9.99999914759
9.99999887491
9.99999861218
9.99999836751
9.99999814668
9.99999796645
9.99999785747
9.99999784716
9.99999794036
9.99999812564
9.99999839183
9.99999874312
9.99999919043
9.9999997387
10.0000003746
10.0000010693
10.0000017921
10.0000025079
10.0000031907
10.0000038232
10.0000043962
10.000004906
10.0000053528
10.0000057392
10.0000060689
10.0000063468
10.0000065777
10.0000067665
10.0000069176
10.0000070354
10.0000071232
10.0000071851
10.000007224
10.0000072431
10.0000072447
10.0000072311
10.0000072037
10.0000071634
10.0000071109
10.0000070441
10.0000069634
10.0000068694
10.0000067624
10.0000066428
10.0000065111
10.0000063677
10.000006213
10.0000060475
10.0000058717
10.000005686
10.000005491
10.0000052873
10.0000050753
10.0000048557
10.0000046291
10.0000043962
10.0000041576
10.0000039139
10.000003666
10.0000034145
10.00000316
10.0000029036
10.0000026456
10.0000023876
10.0000021282
10.0000018726
10.0000016121
10.0000013651
10.0000010982
10.0000008737
10.0000005813
10.0000004234
10.0000000519
10.000000091
10.0000000085
10.0000001364
10.0000002579
10.0000003791
10.000000505
10.0000006351
10.0000007687
10.0000009051
10.0000010433
10.0000011824
10.0000013204
10.0000014572
10.0000015902
10.0000017213
10.0000018443
10.0000019661
10.0000020739
10.0000021851
10.0000022721
10.0000023755
10.0000024338
10.0000025386
10.0000025533
10.0000026808
10.000002621
10.0000028166
10.0000026176
10.0000029741
10.0000025053
10.0000032058
10.0000022148
10.0000036011
10.0000016324
10.000004294
10.0000006026
10.0000054413
9.9999989809
10.0000071265
9.99999678212
10.0000091582
9.99999441276
10.0000108353
9.99999281209
10.0000110448
9.99999306207
10.0000089977
9.99999536301
10.0000052912
9.99999833334
10.0000018333
10.0000000586
10.0000000133
10.0000000441
9.99999941354
9.99999929956
9.99999891982
9.9999986265
9.99999831775
9.99999799655
9.99999774302
9.99999764252
9.99999764079
9.9999975321
9.99999715543
9.99999655845
9.99999601304
9.99999582824
9.9999961988
9.99999710196
9.9999983845
9.9999998239
10.0000012304
10.0000024869
10.0000035459
10.0000044075
10.0000050944
10.0000056364
10.0000060609
10.0000063918
10.0000066487
10.0000068487
10.0000070053
10.0000071287
10.0000072248
10.0000072967
10.0000073449
10.0000073696
10.0000073707
10.0000073495
10.0000073075
10.0000072475
10.000007172
10.0000070834
10.0000069843
10.0000068744
10.0000067532
10.0000066217
10.0000064803
10.0000063294
10.0000061692
10.0000060001
10.0000058221
10.0000056355
10.0000054406
10.0000052378
10.0000050273
10.0000048097
10.0000045853
10.0000043549
10.0000041187
10.0000038776
10.000003632
10.0000033828
10.0000031303
10.0000028757
10.0000026195
10.0000023624
10.0000021057
10.0000018485
10.0000015957
10.0000013391
10.0000010963
10.0000008357
10.0000006169
10.0000003355
10.0000001802
9.99999983303
9.99999985239
10.0000000115
10.0000001442
10.0000002727
10.0000003962
10.000000523
10.0000006539
10.0000007883
10.000000926
10.0000010653
10.0000012058
10.0000013448
10.0000014829
10.0000016162
10.0000017476
10.0000018695
10.0000019903
10.0000020952
10.0000022046
10.0000022873
10.0000023888
10.0000024419
10.0000025456
10.0000025552
10.0000026832
10.0000026189
10.0000028178
10.0000026141
10.0000029813
10.000002499
10.0000032362
10.0000021875
10.0000037029
10.0000015148
10.0000045983
10.0000001967
10.0000062693
9.99999782032
10.0000091531
9.99999396606
10.0000135132
9.99998863288
10.0000188605
9.99998295341
10.0000232668
9.99997958828
10.000023623
9.99998146521
10.0000180356
9.99998858879
10.0000088663
9.99999649978
10.0000015638
10.0000003166
9.99999897046
9.99999985987
9.99999880042
9.99999870321
9.9999981144
9.99999763775
9.99999775476
9.99999806185
9.99999680943
9.99999200916
9.99998324993
9.99997244195
9.9999628745
9.999957441
9.99995737133
9.99996204698
9.99996969054
9.99997828368
9.99998626531
9.99999279743
9.99999767553
10.0000010851
10.0000033635
10.000004845
10.0000057909
10.0000063781
10.000006716
10.0000068723
10.0000068961
10.0000068302
10.0000067156
10.0000065882
10.0000064754
10.0000063928
10.0000063448
10.000006327
10.0000063299
10.000006342
10.0000063533
10.0000063552
10.0000063429
10.0000063127
10.0000062641
10.000006194
10.0000061037
10.0000059946
10.0000058685
10.0000057269
10.0000055713
10.0000054031
10.0000052233
10.0000050329
10.0000048328
10.0000046239
10.0000044068
10.0000041825
10.0000039516
10.000003715
10.0000034732
10.0000032274
10.0000029779
10.0000027262
10.0000024725
10.0000022184
10.0000019643
10.0000017106
10.0000014608
10.0000012091
10.0000009702
10.0000007168
10.0000005023
10.0000002326
10.0000000786
9.99999975457
9.9999997573
10.0000000094
10.0000001446
10.0000002741
10.0000004019
10.0000005331
10.0000006677
10.0000008052
10.0000009454
10.000001087
10.0000012298
10.0000013707
10.0000015109
10.0000016458
10.0000017784
10.0000019009
10.0000020216
10.0000021263
10.0000022338
10.0000023165
10.0000024136
10.0000024694
10.0000025641
10.000002584
10.0000026929
10.0000026567
10.0000028136
10.0000026757
10.0000029513
10.0000026104
10.000003157
10.0000023885
10.0000035395
10.0000018505
10.0000043287
10.0000006634
10.0000059851
9.99999819205
10.000009327
9.99999340033
10.0000155168
9.99998508058
10.0000255101
9.99997290705
10.0000384141
9.99995955896
10.0000493034
9.99995212102
10.0000498253
9.99995829828
10.0000354949
9.99997697212
10.0000138581
9.99999552185
9.99999910119
10.0000020069
9.99999729339
9.99999903821
9.99999683037
9.99999852851
10.0000017089
9.99999561402
9.99996394924
9.99989736903
9.99980345015
9.99970524207
9.99962989127
9.99959599486
9.99960753144
9.99965529171
9.99972326196
9.99979531456
9.99985974308
9.99991071763
9.99994734149
9.99997167682
9.99998686995
9.99999594509
10.0000012762
10.000004503
10.0000066316
10.0000081943
10.0000094057
10.0000103084
10.0000108817
10.0000111147
10.0000110331
10.0000106998
10.0000101973
10.0000096096
10.0000090069
10.0000084395
10.000007936
10.0000075079
10.0000071533
10.0000068633
10.0000066241
10.0000064237
10.0000062454
10.0000060791
10.0000059165
10.0000057522
10.0000055821
10.0000054042
10.0000052169
10.0000050202
10.000004814
10.000004599
10.0000043758
10.0000041455
10.0000039086
10.0000036666
10.0000034197
10.0000031699
10.0000029166
10.0000026628
10.0000024068
10.0000021526
10.0000018978
10.0000016465
10.0000013973
10.0000011506
10.0000009132
10.0000006681
10.0000004549
10.0000001985
10.0000000417
9.99999974054
9.99999972411
10.0000000123
10.0000001526
10.0000002884
10.0000004187
10.0000005507
10.0000006861
10.0000008245
10.0000009659
10.0000011089
10.0000012532
10.0000013962
10.0000015383
10.0000016753
10.0000018093
10.0000019337
10.0000020544
10.0000021608
10.000002266
10.0000023516
10.0000024426
10.0000025056
10.0000025871
10.000002625
10.000002706
10.000002712
10.0000028078
10.0000027651
10.0000029058
10.0000027737
10.0000030245
10.0000027052
10.0000032195
10.0000024722
10.0000036292
10.0000018505
10.0000046014
10.0000002892
10.0000069512
9.99999655296
10.0000124083
9.99998827641
10.0000239385
9.9999720568
10.0000447804
9.99994584391
10.0000741571
9.9999151203
10.0001003147
9.99989792802
10.0001015346
9.99991390069
10.0000674047
9.99995872567
10.0000171917
10.0000014423
9.99998994534
10.0000017172
9.99999733671
10.0000188445
9.99999589046
9.99983361863
9.99944491144
9.99882976725
9.99809992053
9.99743375322
9.99699486674
9.99686908947
9.9970483113
9.99745201422
9.99796948823
9.99849674397
9.99896055104
9.99932534093
9.99958694429
9.99976033444
9.99986761467
9.99992987451
9.99996360474
9.99998033914
9.99998768762
9.99999050113
9.99999171558
9.99999290513
9.99999469504
9.99999711306
9.99999988755
10.0000026673
10.0000051558
10.0000071672
10.0000086298
10.0000095609
10.000010033
10.0000101433
10.0000099912
10.0000096652
10.0000092364
10.0000087579
10.0000082668
10.0000077829
10.0000073193
10.000006882
10.0000064724
10.0000060894
10.0000057302
10.0000053918
10.0000050705
10.0000047636
10.0000044678
10.0000041815
10.0000039018
10.0000036288
10.0000033589
10.0000030947
10.0000028312
10.0000025738
10.000002315
10.0000020645
10.0000018102
10.0000015673
10.0000013188
10.000001084
10.0000008443
10.0000006141
10.0000003919
10.0000001543
9.99999997565
9.99999969979
9.99999963567
10.0000000104
10.0000001534
10.0000002904
10.0000004246
10.000000561
10.0000006998
10.0000008411
10.0000009849
10.0000011302
10.0000012767
10.0000014223
10.0000015669
10.0000017067
10.0000018426
10.0000019697
10.000002091
10.0000022004
10.000002304
10.0000023935
10.0000024799
10.00000255
10.0000026218
10.0000026745
10.0000027357
10.0000027731
10.0000028281
10.0000028512
10.0000029046
10.000002913
10.00000297
10.0000029586
10.0000030307
10.0000029779
10.0000031082
10.0000029235
10.0000032916
10.0000026042
10.0000039117
10.0000013737
10.0000060889
9.99999729373
10.0000129512
9.99998552792
10.0000313855
9.99995711925
10.0000714099
9.99990351482
10.0001355094
9.99983428837
10.0001968231
9.99979360804
10.0002024991
9.99982659716
10.0001277252
9.99993865271
9.99998837093
10.0000305888
10.0000451423
10.0000279475
9.99935449765
9.99756784091
9.99443235896
9.99029776683
9.98600539778
9.98253725138
9.98061625829
9.98050080289
9.9819973993
9.9846111095
9.9877504487
9.99088126176
9.99362882622
9.99580681276
9.99738955251
9.99845619281
9.99913099574
9.99953736779
9.99977327656
9.99990568736
9.9999760778
10.0000091362
10.0000199344
10.0000182699
10.0000107586
10.0000017445
9.99999378631
9.99998807955
9.99998487814
9.99998388419
9.99998455288
9.99998630022
9.99998861692
9.99999111616
9.9999935365
9.99999572381
9.99999760501
9.99999916151
10.0000004095
10.0000013814
10.0000021149
10.0000026509
10.0000030267
10.0000032749
10.0000034222
10.0000034911
10.000003498
10.0000034577
10.0000033787
10.0000032718
10.000003139
10.0000029903
10.0000028218
10.0000026463
10.0000024521
10.0000022596
10.000002045
10.0000018426
10.00000161
10.0000014034
10.000001153
10.0000009463
10.0000006764
10.0000004693
10.0000001797
9.99999996305
9.99999966503
9.99999941261
9.99999915305
10.0000000131
10.000000161
10.0000003039
10.0000004402
10.0000005776
10.0000007175
10.0000008598
10.0000010049
10.0000011517
10.0000013
10.0000014478
10.0000015944
10.0000017368
10.0000018745
10.0000020043
10.0000021267
10.0000022386
10.0000023421
10.0000024345
10.0000025191
10.0000025932
10.0000026614
10.0000027208
10.0000027759
10.000002825
10.00000287
10.0000029134
10.0000029495
10.0000029931
10.0000030171
10.0000030707
10.0000030694
10.0000031573
10.0000030899
10.0000032788
10.0000030301
10.0000034869
10.0000027949
10.0000038599
10.000002345
10.0000042049
10.0000024035
10.000002569
10.0000072371
9.99999064386
10.0000312
9.99994644722
10.0001030003
9.99984068968
10.0002385356
9.99969017073
10.0003750717
9.99958981139
10.0004281703
9.99960455141
10.000206291
10.0001841731
10.0000333551
9.99812634051
9.99142888776
9.97893554141
9.96084033028