/*--------------------------------*- C++ -*----------------------------------*\
  =========                 |
  \\      /  F ield         | OpenFOAM: The Open Source CFD Toolbox
   \\    /   O peration     | Website:  https://openfoam.org
    \\  /    A nd           | Version:  7
     \\/     M anipulation  |
\*---------------------------------------------------------------------------*/
FoamFile
{
    version     2.0;
    format      ascii;
    class       volScalarField;
    location    "1260";
    object      p;
}
// * * * * * * * * * * * * * * * * * * * * * * * * * * * * * * * * * * * * * //

dimensions      [0 2 -2 0 0 0 0];

internalField   nonuniform List<scalar> 
8192
(
0.000641843424446
0.000470304950496
0.000384717891256
0.000340644278845
0.000315663200492
0.000300469280228
0.000290641753787
0.000283934617693
0.000279140383848
0.000275574931669
0.000272831086362
0.000270655250655
0.000268882911272
0.000267403467056
0.000266140241177
0.000265038664673
0.000264059025872
0.000263171865405
0.000262354957512
0.000261591273515
0.000260867571274
0.000260173394389
0.000259500345647
0.000258841547824
0.000258191234174
0.000257544429788
0.000256896696392
0.000256243921274
0.000255582136844
0.000254907360055
0.00025421544247
0.00025350192458
0.000252761888691
0.000251989806158
0.000251179375091
0.000250323346229
0.000249413335288
0.000248439622394
0.000247390940751
0.000246254260455
0.000245014576544
0.000243654716176
0.000242155184838
0.000240494078891
0.000238647097014
0.000236587688929
0.000234287380206
0.000231716309269
0.000228844000475
0.000225640379157
0.000222077006909
0.000218128486913
0.000213773960056
0.000208998595316
0.000203794970297
0.000198164246135
0.000192117053032
0.000185674018356
0.000178865876793
0.000171733110937
0.000164325080733
0.000156698630103
0.00014891620862
0.000141043623911
0.000133147620064
0.000125293537693
0.000117543305112
0.000109953923092
0.000102576498597
9.54557735056e-05
8.86300058504e-05
8.21310376279e-05
7.59844051509e-05
7.02094054345e-05
6.48190958785e-05
5.982026745e-05
5.5213470312e-05
5.09931842915e-05
4.71482045911e-05
4.36622727607e-05
4.05149306622e-05
3.76825341157e-05
3.5139335826e-05
3.28585449626e-05
3.08132829846e-05
2.89773818856e-05
2.73259973302e-05
2.58360355551e-05
2.4486409602e-05
2.32581527281e-05
2.21344196319e-05
2.11004069643e-05
2.01432197142e-05
1.925170648e-05
1.84162801735e-05
1.76287372009e-05
1.68820829047e-05
1.61703690789e-05
1.54885457868e-05
1.48323291751e-05
1.41980846725e-05
1.35827253558e-05
1.29836237239e-05
1.23985360124e-05
1.1825537024e-05
1.1262964561e-05
1.07093715634e-05
1.01634852433e-05
9.62417158757e-06
9.09040481893e-06
8.56124052452e-06
8.03579241726e-06
7.51321190033e-06
6.99267099474e-06
6.47334864001e-06
5.95442218573e-06
5.4350660652e-06
4.91446271456e-06
4.39183322526e-06
3.86650241513e-06
3.33802322833e-06
2.80640789853e-06
2.27255495582e-06
1.73905144452e-06
1.21173013303e-06
7.02862463575e-07
2.39007353258e-07
-4.71749075709e-08
0.000492918334692
0.000429415939265
0.000379751968258
0.00034713360888
0.000325247410479
0.0003100996786
0.000299309830144
0.000291412029372
0.000285480637799
0.000280917208961
0.000277325792866
0.000274438401073
0.000272069629361
0.000270088516098
0.000268400749499
0.00026693719144
0.000265646324335
0.000264489179337
0.00026343586328
0.000262463134931
0.000261552682302
0.000260689876487
0.000259862854397
0.000259061831838
0.000258278579651
0.000257506016457
0.000256737884801
0.000255968486751
0.000255192462756
0.000254404600527
0.000253599663026
0.000252772228286
0.00025191653481
0.000251026327992
0.000250094703753
0.000249113947159
0.000248075364676
0.00024696911076
0.000245784011026
0.000244507387365
0.000243124893102
0.000241620370858
0.000239975749825
0.000238171004717
0.000236184202714
0.00023399166883
0.000231568300192
0.000228888057046
0.000225924648286
0.000222652414396
0.00021904738829
0.000215088490925
0.000210758794826
0.000206046774042
0.000200947453262
0.000195463375968
0.000189605322809
0.000183392725049
0.000176853725432
0.00017002484625
0.000162950232992
0.000155680464986
0.000148270963791
0.000140780092281
0.000133267103288
0.000125790149461
0.00011840456554
0.000111161552664
0.000104107311385
9.72825835346e-05
9.07224869368e-05
8.44565105635e-05
7.85085570721e-05
7.28969648764e-05
6.7634492054e-05
6.2728293416e-05
5.81799533001e-05
5.39856468181e-05
5.0136484564e-05
4.66190624689e-05
4.3416196594e-05
4.05077894711e-05
3.78717535839e-05
3.54849160319e-05
3.33238389628e-05
3.13655116468e-05
2.95878914473e-05
2.7970291797e-05
2.64936288829e-05
2.51405484503e-05
2.38954568248e-05
2.27444810243e-05
2.16753794691e-05
2.0677422035e-05
1.97412534349e-05
1.88587510501e-05
1.80228843559e-05
1.72275812967e-05
1.64676042146e-05
1.57384372273e-05
1.50361851784e-05
1.4357484318e-05
1.3699423716e-05
1.30594768702e-05
1.24354421477e-05
1.18253913718e-05
1.1227625206e-05
1.06406347506e-05
1.00630681924e-05
9.49370215253e-06
8.93141686353e-06
8.37517516591e-06
7.82400489504e-06
7.27698522356e-06
6.73323732539e-06
6.1919210687e-06
5.65223979932e-06
5.11345749998e-06
4.57493438298e-06
4.03619149915e-06
3.49702049424e-06
2.95766546926e-06
2.4191201988e-06
1.88361418346e-06
1.35541263125e-06
8.42189805439e-07
3.56851167493e-07
4.68911690888e-09
0.000409941185864
0.000387289685028
0.00036132304906
0.000340116372225
0.000324027834562
0.000311746088158
0.000302250386993
0.00029481242473
0.000288909882735
0.000284163486806
0.000280294998009
0.000277098498365
0.000274420302174
0.0002721447141
0.000270183858132
0.000268470374631
0.000266952147563
0.000265588472915
0.00026434725321
0.000263202925819
0.000262134918665
0.00026112648749
0.000260163830773
0.0002592354082
0.000258331408951
0.000257443331127
0.000256563642837
0.000255685503436
0.000254802530539
0.000253908599911
0.00025299766747
0.000252063606784
0.000251100055962
0.00025010026967
0.000249056972604
0.000247962212391
0.000246807210567
0.000245582212224
0.000244276336052
0.000242877429317
0.000241371934281
0.000239744776645
0.000237979289569
0.000236057191879
0.000233958642209
0.00023166239501
0.000229146084437
0.0002263866609
0.000223360996483
0.000220046663208
0.000216422867702
0.000212471504529
0.000208178267638
0.000203533746102
0.000198534425141
0.000193183522501
0.000187491602544
0.00018147692497
0.000175165490392
0.000168590749388
0.000161792944075
0.000154818067476
0.000147716456576
0.000140541093072
0.000133345751859
0.000126183199393
0.00011910365153
0.000112153606634
0.000105375092095
9.88052851773e-05
9.24763886721e-05
8.64156356469e-05
8.06453210539e-05
7.51828026901e-05
7.00404589323e-05
6.52256360912e-05
6.07406468148e-05
5.65828903305e-05
5.27451464987e-05
4.92160630045e-05
4.59808142602e-05
4.30218801986e-05
4.03198744756e-05
3.78543524749e-05
3.56045406432e-05
3.35499496802e-05
3.16708534321e-05
2.99486340291e-05
2.83660047528e-05
2.69071301602e-05
2.55576642627e-05
2.43047280921e-05
2.31368444928e-05
2.20438458944e-05
2.10167664738e-05
2.00477281296e-05
1.91298261063e-05
1.8257019027e-05
1.74240255168e-05
1.66262293745e-05
1.58595934468e-05
1.51205827214e-05
1.44060958343e-05
1.37134048862e-05
1.30401024178e-05
1.23840552613e-05
1.17433640859e-05
1.11163284028e-05
1.05014159721e-05
9.89723654513e-06
9.30251910449e-06
8.7160928046e-06
8.13687111142e-06
7.56383977095e-06
6.99604866595e-06
6.43260894284e-06
5.872696498e-06
5.31556463551e-06
4.76056898938e-06
4.20721035774e-06
3.65520260327e-06
3.10457721629e-06
2.5558406969e-06
2.01020980486e-06
1.46995757683e-06
9.38833440356e-07
4.21769970339e-07
1.90188601469e-08
0.000365350830319
0.00035698467589
0.000342818206545
0.000329052649139
0.000317649624584
0.000308397152399
0.000300841902262
0.000294615364766
0.000289439309306
0.000285101156228
0.0002814351545
0.000278310244551
0.00027562196648
0.000273286675322
0.000271237170999
0.000269419293877
0.000267789236957
0.00026631141467
0.000264956771488
0.000263701439254
0.000262525670205
0.00026141298719
0.00026034950427
0.000259323380664
0.000258324378641
0.000257343502775
0.000256372700692
0.000255404611427
0.000254432352256
0.000253449333448
0.000252449092422
0.000251425142357
0.000250370830378
0.000249279201612
0.0002481428661
0.000246953866633
0.000245703546324
0.000244382416058
0.000242980023126
0.000241484824355
0.000239884069028
0.000238163700004
0.000236308284543
0.000234300990626
0.000232123628302
0.000229756779706
0.000227180043097
0.000224372415874
0.000221312835292
0.000217980884014
0.000214357648393
0.000210426694586
0.000206175104041
0.000201594494578
0.000196681949679
0.000191440789759
0.00018588113639
0.000180020236025
0.000173882514252
0.000167499329366
0.000160908390433
0.000154152811742
0.000147279800714
0.000140339035004
0.000133380864788
0.000126454559095
0.00011960683747
0.00011288080009
0.000106315287175
9.99446183574e-05
9.37985665791e-05
8.79024266239e-05
8.22770750213e-05
7.69389672019e-05
7.19000650719e-05
6.71677346719e-05
6.27446862876e-05
5.86290375735e-05
5.48145586648e-05
5.12911191573e-05
4.80453125526e-05
4.50612004304e-05
4.23211016453e-05
3.98063546444e-05
3.74979962307e-05
3.53773227026e-05
3.34263202512e-05
3.162796889e-05
2.99664344024e-05
2.84271684678e-05
2.69969376169e-05
2.56638005604e-05
2.44170500715e-05
2.32471327954e-05
2.21455567815e-05
2.11047942646e-05
2.01181845817e-05
1.91798408081e-05
1.82845619902e-05
1.74277523179e-05
1.66053475162e-05
1.58137486787e-05
1.50497630875e-05
1.43105517668e-05
1.35935830473e-05
1.28965917541e-05
1.22175432669e-05
1.15546020963e-05
1.09061043134e-05
1.02705335951e-05
9.64650037372e-06
9.03272403259e-06
8.42801785022e-06
7.83127688984e-06
7.24146885249e-06
6.65762848326e-06
6.07885605944e-06
5.50432122805e-06
4.93327366136e-06
4.36506316475e-06
3.79917280078e-06
3.23527096589e-06
2.67329082781e-06
2.11354721994e-06
1.55688203402e-06
1.00468833278e-06
4.57988081281e-07
2.14663751101e-08
0.000337693865064
0.000335752958144
0.000327980713235
0.000318812535087
0.000310553022297
0.000303539212163
0.000297613947212
0.000292571844382
0.000288244562891
0.000284502453281
0.000281244283408
0.000278388834273
0.000275869496901
0.000273630889657
0.000271626621091
0.000269817680583
0.000268171189774
0.000266659384445
0.000265258762557
0.000263949363941
0.000262714159718
0.000261538534986
0.00026040985086
0.00025931707365
0.000258250460212
0.000257201290833
0.000256161637794
0.000255124164808
0.000254081953077
0.000253028346343
0.000251956809349
0.00025086079689
0.000249733630005
0.00024856837655
0.00024735773381
0.000246093911556
0.000244768514395
0.000243372423304
0.000241895677081
0.000240327356062
0.00023865547217
0.000236866872054
0.000234947163121
0.000232880676445
0.000230650484822
0.000228238499111
0.000225625669274
0.00022279231777
0.000219718628632
0.000216385304724
0.000212774385879
0.000208870194986
0.000204660351688
0.000200136774745
0.000195296590867
0.0001901428835
0.000184685239239
0.000178940069052
0.000172930683958
0.000166687095163
0.000160245496332
0.000153647382435
0.000146938276188
0.000140166096104
0.000133379305084
0.000126625098932
0.000119947936124
0.000113388529506
0.000106983320432
0.000100764366694
9.47594522624e-05
8.89922515855e-05
8.34824383084e-05
7.82456865509e-05
7.32935626638e-05
6.86333580517e-05
6.42679541487e-05
6.01958195161e-05
5.64112108803e-05
5.29046004875e-05
4.96632991541e-05
4.66722059348e-05
4.39145986509e-05
4.13728860197e-05
3.9029262983e-05
3.68662377964e-05
3.48670231035e-05
3.30158007339e-05
3.12978792668e-05
2.96997671342e-05
2.82091830325e-05
2.68150228143e-05
2.55072980486e-05
2.42770580674e-05
2.31163038601e-05
2.20178998642e-05
2.09754874551e-05
1.998340273e-05
1.90365998747e-05
1.81305809227e-05
1.72613319756e-05
1.64252658809e-05
1.56191709184e-05
1.48401651834e-05
1.40856560563e-05
1.33533043756e-05
1.26409927089e-05
1.194679738e-05
1.12689637164e-05
1.06058842666e-05
9.95607955383e-06
9.31818122745e-06
8.69091730574e-06
8.07309951243e-06
7.46361256696e-06
6.86140564197e-06
6.26548613047e-06
5.67491634751e-06
5.08881394184e-06
4.50635764339e-06
3.92680065711e-06
3.34949533295e-06
2.77393245596e-06
2.19979139482e-06
1.62695788406e-06
1.05531226506e-06
4.83682826422e-07
2.20441591149e-08
0.000319311974107
0.000320241431048
0.000316229177386
0.000310119708302
0.00030404567384
0.000298629188793
0.000293920901371
0.000289825961435
0.000286237801002
0.000283067954286
0.000280247068856
0.000277720343713
0.000275443326189
0.00027337900946
0.000271495980052
0.000269767233827
0.000268169380204
0.000266682064934
0.000265287517895
0.000263970177255
0.000262716365393
0.000261514004088
0.000260352362109
0.00025922183085
0.000258113724526
0.0002570201037
0.000255933613054
0.00025484733633
0.000253754666988
0.000252649188514
0.000251524561854
0.000250374418746
0.000249192258732
0.000247971347995
0.000246704618312
0.00024538456481
0.000244003141457
0.000242551653914
0.000241020649963
0.000239399808998
0.000237677833515
0.000235842347954
0.00023387981323
0.000231775469601
0.000229513325442
0.000227076215463
0.000224445957067
0.000221603636921
0.000218530057674
0.00021520636474
0.000211614851948
0.000207739914546
0.000203569084196
0.000199094056211
0.000194311615791
0.000189224392465
0.00018384140737
0.000178178404337
0.000172257955597
0.000166109312891
0.000159767952008
0.000153274743128
0.000146674681416
0.000140015178181
0.000133344058618
0.000126707592953
0.000120148956972
0.000113707261134
0.00010741715314
0.000101308891675
9.54086297687e-05
8.97386998421e-05
8.43177839121e-05
7.91609209609e-05
7.42793527132e-05
6.96802719718e-05
6.53665923111e-05
6.13368683167e-05
5.75854568165e-05
5.41029444213e-05
5.08768004306e-05
4.78921681657e-05
4.51326913012e-05
4.2581283982e-05
4.02207825324e-05
3.80344502055e-05
3.60063339231e-05
3.41214900983e-05
3.23661047284e-05
3.07275344853e-05
2.9194292537e-05
2.77559985642e-05
2.6403307516e-05
2.51278276926e-05
2.3922035206e-05
2.27791895471e-05
2.16932529951e-05
2.06588155334e-05
1.96710259218e-05
1.87255292043e-05
1.78184104229e-05
1.69461442789e-05
1.61055502096e-05
1.52937524675e-05
1.45081446204e-05
1.37463580619e-05
1.30062339992e-05
1.22857985687e-05
1.15832406221e-05
1.08968919085e-05
1.02252092781e-05
9.5667587068e-06
8.92020085034e-06
8.2842780142e-06
7.65780235216e-06
7.03964532017e-06
6.42872840078e-06
5.82401543353e-06
5.2245070313e-06
4.6292380562e-06
4.03727928459e-06
3.44774405107e-06
2.85979691812e-06
2.27264734206e-06
1.68546540471e-06
1.09703756834e-06
5.0479455068e-07
2.30564411061e-08
0.000306405078795
0.000308569482547
0.000306805181085
0.000302812994836
0.00029834495439
0.000294118866705
0.000290324692205
0.000286957253634
0.000283959507797
0.0002812712688
0.000278841696281
0.000276630113706
0.000274603963125
0.000272736639559
0.000271005847144
0.000269392478431
0.000267879875341
0.000266453336951
0.000265099777624
0.00026380747422
0.000262565866057
0.000261365387033
0.00026019731861
0.000259053657533
0.000257926994741
0.00025681040611
0.000255697344745
0.000254581541968
0.000253456917555
0.000252317491948
0.00025115730101
0.000249970312601
0.000248750343657
0.000247490976478
0.000246185472979
0.000244826685738
0.00024340696481
0.000241918059612
0.000240351015607
0.0002386960664
0.000236942523139
0.000235078665162
0.000233091638877
0.000230967376232
0.000228690549896
0.000226244589474
0.000223611790603
0.000220773554821
0.000217710798942
0.000214404563816
0.000210836829529
0.000206991507195
0.000202855533934
0.000198419963908
0.000193680943484
0.000188640490931
0.000183307054101
0.000177695857315
0.000171829044311
0.000165735588611
0.000159450907794
0.000153016088517
0.00014647660444
0.000139880469654
0.000133275980636
0.000126709479374
0.000120223674233
0.000113856691859
0.000107641838709
0.000101607914359
9.5779714653e-05
9.01784605784e-05
8.48220382789e-05
7.97250117183e-05
7.48984074077e-05
7.0349350636e-05
6.60807118094e-05
6.20909340246e-05
5.83741573335e-05
5.49206674132e-05
5.17176116044e-05
4.87498691236e-05
4.60009466564e-05
4.34537913794e-05
4.10914542949e-05
3.889757952e-05
3.68567277256e-05
3.49545605004e-05
3.31779188264e-05
3.15148273816e-05
2.99544509945e-05
2.84870231879e-05
2.71037608432e-05
2.57967743008e-05
2.45589786878e-05
2.33840098335e-05
2.22661464973e-05
2.12002396044e-05
2.01816485476e-05
1.92061842599e-05
1.82700585583e-05
1.7369839191e-05
1.65024099847e-05
1.56649355178e-05
1.48548297701e-05
1.40697282552e-05
1.33074631754e-05
1.25660411984e-05
1.18436234807e-05
1.11385076183e-05
1.04491112201e-05
9.77395684949e-06
9.11165809374e-06
8.46090656923e-06
7.82045969865e-06
7.18912916713e-06
6.56577002672e-06
5.94927053251e-06
5.33854286796e-06
4.73251489772e-06
4.13012255081e-06
3.53030043735e-06
2.93196212445e-06
2.33394477072e-06
1.7348526838e-06
1.13266013399e-06
5.23882602748e-07
2.56435120286e-08
0.000296931088733
0.000299565805089
0.000299153781565
0.000296645842694
0.000293393980986
0.000290094567674
0.000287013946313
0.000284215054876
0.000281684021237
0.0002793856061
0.000277283665626
0.000275347086944
0.000273550437771
0.000271873050154
0.000270297884574
0.000268810580041
0.000267398754849
0.000266051517904
0.000264759131933
0.000263512778316
0.000262304387048
0.000261126507429
0.000259972203925
0.000258834967684
0.000257708637967
0.000256587332063
0.000255465373611
0.000254337224503
0.000253197424343
0.000252040527083
0.000250861037605
0.000249653347459
0.00024841166879
0.000247129965455
0.000245801880241
0.000244420657071
0.000242979057015
0.000241469267096
0.000239882801023
0.000238210391631
0.000236441875716
0.000234566073854
0.000232570670577
0.000230442104945
0.000228165487971
0.000225724572177
0.000223101808728
0.000220278537317
0.000217235358656
0.000213952732968
0.000210411823033
0.000206595555158
0.000202489813382
0.000198084634392
0.000193375261807
0.000188362965393
0.000183055610985
0.000177468023972
0.000171622176969
0.00016554717233
0.000159278942401
0.00015285954961
0.00014633589514
0.000139757675262
0.000133174738541
0.00012663444227
0.000120179751267
0.000113848307684
0.000107672404489
0.000101679616369
9.58935828458e-05
9.03346008129e-05
8.50199387593e-05
7.99638544155e-05
7.51772991428e-05
7.06674036333e-05
6.64369618187e-05
6.24841437216e-05
5.88025848909e-05
5.5381880838e-05
5.22084050365e-05
4.92663000675e-05
4.65384778821e-05
4.40074995e-05
4.16562616337e-05
3.94684730336e-05
3.74289415124e-05
3.55237113812e-05
3.37400943216e-05
3.2066631542e-05
3.04930162841e-05
2.90099971815e-05
2.76092756669e-05
2.62834054247e-05
2.50256981447e-05
2.38301376181e-05
2.26913027136e-05
2.16042990734e-05
2.05646988745e-05
1.95684879052e-05
1.86120190858e-05
1.7691971663e-05
1.68053152976e-05
1.59492784098e-05
1.5121320154e-05
1.43191055352e-05
1.35404831758e-05
1.27834653638e-05
1.20462099965e-05
1.1327004135e-05
1.06242488605e-05
9.9364452068e-06
9.26218091375e-06
8.6001178253e-06
7.94897972419e-06
7.3075404727e-06
6.6746122876e-06
6.04903400617e-06
5.4296590072e-06
4.81534205412e-06
4.20492305245e-06
3.59720270046e-06
2.99089774027e-06
2.38454780876e-06
1.77631613593e-06
1.1635884295e-06
5.42286566939e-07
3.04590211816e-08
0.000289725790201
0.000292475183577
0.000292875584979
0.000291412008537
0.000289091832951
0.000286532875293
0.000284029331319
0.000281689493173
0.000279534766285
0.000277552577732
0.000275720468244
0.000274015677201
0.000272418246202
0.000270911513225
0.000269481708123
0.00026811734603
0.000266808669287
0.000265547204665
0.000264325433994
0.000263136555744
0.000261974313117
0.000260832868258
0.000259706707324
0.000258590565685
0.000257479366894
0.000256368169319
0.000255252114454
0.000254126376425
0.000252986119164
0.000251826449344
0.000250642368164
0.000249428720955
0.000248180143702
0.000246891005462
0.000245555345585
0.000244166804475
0.000242718546518
0.000241203173691
0.000239612628405
0.00023793808435
0.000236169824846
0.000234297109603
0.000232308033552
0.000230189385961
0.000227926525356
0.000225503296151
0.000222902026341
0.00022010365993
0.000217088088034
0.000213834739983
0.000210323469853
0.000206535717899
0.000202455848342
0.00019807249458
0.000193379725976
0.000188377917049
0.000183074323288
0.000177483456679
0.000171627327997
0.000165535520051
0.000159244997677
0.000152799524161
0.000146248394755
0.00013964413649
0.000133039306402
0.000126483253755
0.00012001989297
0.000113686799681
0.000107515478307
0.000101532423101
9.57602614808e-05
9.02185193244e-05
8.49240079522e-05
7.98908530004e-05
7.5130096394e-05
7.0648978243e-05
6.64502048547e-05
6.25315178807e-05
5.88857521165e-05
5.55014071942e-05
5.23636160624e-05
4.94553074185e-05
4.67583504403e-05
4.42545245468e-05
4.19262374841e-05
3.97569862653e-05
3.77316001039e-05
3.58363218198e-05
3.40587829465e-05
3.23879171919e-05
3.08138442153e-05
2.93277442998e-05
2.79217360076e-05
2.65887630056e-05
2.53224926716e-05
2.41172269155e-05
2.29678246133e-05
2.18696344816e-05
2.08184371304e-05
1.98103949909e-05
1.88420089843e-05
1.79100808737e-05
1.70116804454e-05
1.61441167311e-05
1.53049126617e-05
1.4491782578e-05
1.37026121638e-05
1.29354403751e-05
1.21884430508e-05
1.14599178745e-05
1.0748270448e-05
1.00520012069e-05
9.36969298138e-06
8.69999896277e-06
8.04163089047e-06
7.39334719904e-06
6.75394085824e-06
6.12222642946e-06
5.4970255622e-06
4.87714931366e-06
4.26137403461e-06
3.64840396175e-06
3.03680660884e-06
2.42489398174e-06
1.81050325842e-06
1.19061591445e-06
5.60787580566e-07
3.7928455297e-08
0.000284093124119
0.000286795398379
0.000287679393135
0.000286950866
0.000285346325981
0.000283386031455
0.000281360063258
0.000279401905154
0.00027755910342
0.000275838497145
0.000274230387555
0.000272720037997
0.000271292567675
0.000269934697033
0.000268635112883
0.000267384296945
0.000266174195628
0.00026499788608
0.000263849292042
0.000262722959641
0.000261613886751
0.000260517394873
0.000259429032624
0.000258344501667
0.000257259600393
0.000256170174463
0.000255072073124
0.000253961107946
0.000252833018243
0.000251683433473
0.00025050783424
0.000249301510785
0.00024805951788
0.000246776624997
0.000245447260462
0.000244065448141
0.000242624734961
0.000241118107283
0.00023953789397
0.000237875653896
0.000236122045947
0.000234266680647
0.000232297954807
0.000230202875214
0.000227966885129
0.000225573719623
0.000223005332815
0.00022024196037
0.000217262398471
0.000214044584705
0.000210566540715
0.000206807668275
0.000202750284224
0.000198381174919
0.000193692916836
0.00018868480348
0.000183363409788
0.000177742968972
0.000171845685809
0.000165701927801
0.000159350172231
0.000152836606034
0.000146213972322
0.000139538956995
0.000132868174846
0.000126254071254
0.000119742233087
0.000113370540987
0.000107169849723
0.000101165640947
9.53796383925e-05
8.98307248938e-05
8.45353915142e-05
7.95078039937e-05
7.47592799794e-05
7.02972921508e-05
6.6124447948e-05
6.22378792782e-05
5.8629275352e-05
5.52855742657e-05
5.21901448777e-05
4.93241832613e-05
4.66680477993e-05
4.4202342122e-05
4.19086680546e-05
3.9770062564e-05
3.77711831424e-05
3.58983199085e-05
3.41393040084e-05
3.24833644784e-05
3.09209678818e-05
2.94436608543e-05
2.80439257234e-05
2.67150532299e-05
2.5451032829e-05
2.42464593379e-05
2.30964539421e-05
2.19965974577e-05
2.09428738416e-05
1.99316222143e-05
1.89594958953e-05
1.80234272287e-05
1.71205971741e-05
1.62484088369e-05
1.54044642497e-05
1.45865438448e-05
1.37925881491e-05
1.30206813077e-05
1.2269036104e-05
1.15359801845e-05
1.08199432333e-05
1.011944486e-05
9.43308297777e-06
8.75952244133e-06
8.09748369172e-06
7.44573108713e-06
6.80306046956e-06
6.16828524455e-06
5.54021973559e-06
4.91765755639e-06
4.29934082308e-06
3.68391243715e-06
3.06983737999e-06
2.45526911733e-06
1.83782581003e-06
1.21423903108e-06
5.79871735162e-07
4.83287261245e-08
0.000279598283775
0.000282183776971
0.000283348984011
0.000283137030413
0.000282081564678
0.000280606924878
0.00027898091546
0.000277346621975
0.000275768849473
0.000274269821962
0.000272851124837
0.000271505632715
0.000270223434357
0.000268994508544
0.000267809761242
0.000266661290604
0.000265542320996
0.000264447019614
0.000263370292638
0.000262307600261
0.000261254802727
0.000260208037554
0.000259163623482
0.000258117985353
0.000257067598193
0.000256008937701
0.000254938436911
0.000253852449872
0.000252747219603
0.000251618845007
0.000250463246689
0.000249276130401
0.00024805294686
0.000246788846591
0.000245478628338
0.000244116679284
0.000242696905044
0.000241212646879
0.000239656583233
0.00023802061215
0.000236295711114
0.000234471771227
0.000232537404547
0.000230479727534
0.000228284131761
0.000225934066883
0.000223410882059
0.000220693799557
0.000217760122737
0.000214585795629
0.000211146409852
0.000207418672923
0.000203382207806
0.000199021395477
0.00019432690543
0.000189296685904
0.000183936483539
0.00017826020282
0.000172290322695
0.00016605824899
0.000159604418974
0.000152978180785
0.000146236942788
0.000139443204387
0.000132659336846
0.000125942235696
0.000119339985775
0.000112891140482
0.000106625972737
0.000100568951765
9.4740999761e-05
8.9160463965e-05
8.38436050419e-05
7.88047785279e-05
7.40557684233e-05
6.96044022031e-05
6.54531456254e-05
6.159827195e-05
5.80298835736e-05
5.47327822591e-05
5.16879478345e-05
4.88742480214e-05
4.62700173388e-05
4.38542745951e-05
4.16075070648e-05
3.95120662677e-05
3.75522750952e-05
3.57143520624e-05
3.39862389676e-05
3.23573915232e-05
3.08185688169e-05
2.93616400763e-05
2.79794161712e-05
2.66655069577e-05
2.54142024935e-05
2.42203748839e-05
2.30793973521e-05
2.19870773551e-05
2.09396010568e-05
1.99334869106e-05
1.8965546572e-05
1.80328516917e-05
1.71327054709e-05
1.62626180619e-05
1.54202851097e-05
1.46035688422e-05
1.38104812534e-05
1.3039168979e-05
1.22878995529e-05
1.15550487511e-05
1.08390887897e-05
1.01385771315e-05
9.45214568524e-06
8.77849013506e-06
8.11635911369e-06
7.46454280164e-06
6.82186037021e-06
6.18714530508e-06
5.5592270427e-06
4.93690619553e-06
4.3189186992e-06
3.70388086047e-06
3.09020210213e-06
2.47594521063e-06
1.85860796617e-06
1.23480357285e-06
5.99844706096e-07
6.18197499867e-08
0.000275958176429
0.00027840071103
0.000279721170666
0.000279870929332
0.000279235639107
0.000278154645081
0.000276865091287
0.00027550883855
0.00027416033854
0.000272853018989
0.000271597828399
0.000270394529073
0.000269237980663
0.000268121388253
0.000267037847332
0.000265980986202
0.000264945156403
0.000263925413474
0.000262917413194
0.000261917284699
0.000260921508337
0.000259926809012
0.000258930067416
0.000257928247702
0.0002569183422
0.000255897322821
0.0002548620952
0.000253809465334
0.00025273610759
0.000251638533326
0.000250513058795
0.00024935577096
0.0002481624898
0.000246928725606
0.000245649629568
0.000244319935659
0.000242933891333
0.000241485173976
0.000239966789289
0.000238370947028
0.000236688908754
0.000234910802147
0.000233025397368
0.000231019844565
0.000228879379581
0.000226587020299
0.000224123301327
0.000221466131279
0.000218590899359
0.00021547099003
0.000212078853554
0.000208387686346
0.00020437358061
0.00020001776374
0.000195308419165
0.000190241744405
0.000184822367234
0.000179063657627
0.000172988316776
0.000166628970694
0.00016002842221
0.000153239926836
0.000146327034348
0.000139360264236
0.000132410028291
0.000125539460176
0.000118800177248
0.000112231841064
0.000105864158661
9.9720517434e-05
9.38211813396e-05
8.81840370003e-05
8.2825091167e-05
7.77589656173e-05
7.29980736251e-05
6.85506791394e-05
6.4418980819e-05
6.05980189356e-05
5.70757105753e-05
5.38339791364e-05
5.08506408376e-05
4.81015287753e-05
4.55623766403e-05
4.32101872781e-05
4.10240330379e-05
3.89853812464e-05
3.70780927458e-05
3.52882334874e-05
3.36038037415e-05
3.20144511609e-05
3.05112032978e-05
2.90862348767e-05
2.77326731983e-05
2.64444391362e-05
2.52161187273e-05
2.40428599237e-05
2.29202894615e-05
2.18444456085e-05
2.08117233305e-05
1.98188291829e-05
1.88627438092e-05
1.79406904423e-05
1.70501081477e-05
1.61886288586e-05
1.53540574426e-05
1.45443542198e-05
1.37576194565e-05
1.29920794585e-05
1.22460739462e-05
1.15180444431e-05
1.08065234368e-05
1.0110124084e-05
9.42753022398e-06
8.75748643201e-06
8.09878777109e-06
7.45026876695e-06
6.81079089504e-06
6.17922746016e-06
5.55444406073e-06
4.93527167379e-06
4.32046752084e-06
3.70865595886e-06
3.09823754013e-06
2.48724969483e-06
1.87315985407e-06
1.25257695786e-06
6.20886722105e-07
7.84583907437e-08
0.000272981058736
0.000275274530808
0.000276670898821
0.000277072104825
0.000276757233104
0.000275994433169
0.000274987972531
0.000273871708776
0.000272723794135
0.000271585010773
0.000270473577071
0.000269395164726
0.000268349027477
0.000267331496293
0.000266337851919
0.000265363256263
0.000264403163205
0.000263453454984
0.000262510442898
0.000261570807799
0.000260631519827
0.000259689756743
0.000258742829382
0.000257788117756
0.000256823018897
0.000255844900438
0.000254851054976
0.000253838667789
0.000252804784931
0.000251746282462
0.000250659835221
0.000249541883687
0.000248388597434
0.000247195833561
0.000245959088204
0.000244673438859
0.000243333474648
0.000241933210846
0.000240465982978
0.000238924314519
0.000237299750916
0.000235582651553
0.000233761931261
0.00023182474529
0.000229756119007
0.00022753853957
0.000225151556262
0.000222571482706
0.000219771355244
0.000216721359191
0.000213389945374
0.000209745759003
0.000205760245334
0.000201410435938
0.000196681178523
0.000191566267209
0.000186068653801
0.000180200662583
0.000173984900915
0.000167455264928
0.000160657250946
0.000153648720504
0.000146501227897
0.000139296455048
0.000132116108853
0.000125032095981
0.000118100987265
0.000111364201901
0.000104850878177
9.85831428567e-05
9.25808689472e-05
8.68614637167e-05
8.14403786501e-05
7.63323929576e-05
7.15506124213e-05
6.71037006083e-05
6.29932969322e-05
5.92126277851e-05
5.57465931542e-05
5.2573262335e-05
4.96663149973e-05
4.6997706236e-05
4.45399216321e-05
4.22675020507e-05
4.01578270819e-05
3.81913240596e-05
3.63513154497e-05
3.46236854653e-05
3.2996489366e-05
3.14595759851e-05
3.00042562106e-05
2.86230271768e-05
2.73093500178e-05
2.60574739371e-05
2.48622980987e-05
2.37192633469e-05
2.26242670084e-05
2.15735953507e-05
2.05638695153e-05
1.95920017212e-05
1.86551593544e-05
1.77507351298e-05
1.68763219905e-05
1.60296917144e-05