/*--------------------------------*- C++ -*----------------------------------*\
  =========                 |
  \\      /  F ield         | OpenFOAM: The Open Source CFD Toolbox
   \\    /   O peration     | Website:  https://openfoam.org
    \\  /    A nd           | Version:  7
     \\/     M anipulation  |
\*---------------------------------------------------------------------------*/
FoamFile
{
    version     2.0;
    format      ascii;
    class       surfaceScalarField;
    location    "1260";
    object      phi;
}
// * * * * * * * * * * * * * * * * * * * * * * * * * * * * * * * * * * * * * //

dimensions      [0 3 -1 0 0 0 0];

internalField   nonuniform List<scalar> 
16192
(
6.92903123559e-10
2.44596876441e-10
4.93523179902e-10
1.99379940607e-10
3.64779242862e-10
1.28743933826e-10
2.82204876787e-10
8.25743627297e-11
2.27601963837e-10
5.46029093164e-11
1.90023996251e-10
3.75779637805e-11
1.63125468938e-10
2.689852343e-11
1.43191309043e-10
1.9934155997e-11
1.27985396738e-10
1.52059084141e-11
1.16114008325e-10
1.1871384561e-11
1.066759025e-10
9.4381020138e-12
9.90671301808e-11
7.60876857399e-12
9.28694489815e-11
6.19767751758e-12
8.77846340871e-11
5.08481130336e-12
8.35945825691e-11
4.19004801651e-12
8.01363160893e-11
3.4582631012e-12
7.72858421446e-11
2.85047068939e-12
7.49474388068e-11
2.33840024561e-12
7.30463549794e-11
1.90108090053e-12
7.15237206302e-11
1.52263163409e-12
7.03329230048e-11
1.19079512544e-12
6.94369787041e-11
8.95942069391e-13
6.88065965384e-11
6.30380208188e-13
6.84187296504e-11
3.87865265318e-13
6.82554799715e-11
1.63248397715e-13
6.8303261125e-11
-4.77820239776e-14
6.85521526043e-11
-2.48891931005e-13
6.8995397023e-11
-4.43244373727e-13
6.96290061538e-11
-6.33608579917e-13
7.04514498639e-11
-8.22442566486e-13
7.14634057469e-11
-1.01195413667e-12
7.26675524215e-11
-1.20414422964e-12
7.406839056e-11
-1.40083498515e-12
7.56720778794e-11
-1.60368335275e-12
7.74862629881e-11
-1.81418032097e-12
7.9519903485e-11
-2.03363477524e-12
8.17830507652e-11
-2.26314062178e-12
8.42865835674e-11
-2.5035250885e-12
8.70418686122e-11
-2.75527628245e-12
9.0060326642e-11
-3.01844809927e-12
9.33528796699e-11
-3.29254195211e-12
9.6929258448e-11
-3.57636644264e-12
1.00797151729e-10
-3.86787973371e-12
1.04961190256e-10
-4.16402366491e-12
1.09421771415e-10
-4.46056506425e-12
1.14173754804e-10
-4.75196598035e-12
1.19205084579e-10
-5.03131117379e-12
1.24495428668e-10
-5.29032424067e-12
1.30014952232e-10
-5.51950264699e-12
1.35723366662e-10
-5.70839242917e-12
1.41569396488e-10
-5.84600699164e-12
1.47490791454e-10
-5.92137134796e-12
1.53414967035e-10
-5.92415153206e-12
1.5926030508e-10
-5.84531371387e-12
1.64938086404e-10
-5.67775719842e-12
1.70354986672e-10
-5.4168766179e-12
1.7541603562e-10
-5.06102640917e-12
1.8002792707e-10
-4.61187040102e-12
1.84102542733e-10
-4.07459684182e-12
1.87560521425e-10
-3.45796250208e-12
1.90334646837e-10
-2.77411255764e-12
1.92372773053e-10
-2.03811695941e-12
1.93639968397e-10
-1.2671901862e-12
1.94119595893e-10
-4.7962642939e-13
1.93813170791e-10
3.06421841461e-13
1.92739052634e-10
1.07411081278e-12
1.90930258467e-10
1.80878268227e-12
1.8843180636e-10
2.4984368716e-12
1.85298017519e-10
3.13376994048e-12
1.8159012149e-10
3.70787399902e-12
1.77374332244e-10
4.21576432534e-12
1.72720393531e-10
4.65391155911e-12
1.67700457955e-10
5.01990651841e-12
1.62388106463e-10
5.31232121659e-12
1.568573128e-10
5.53076249814e-12
1.51181222583e-10
5.67605878505e-12
1.45430709387e-10
5.75048175345e-12
1.3967277986e-10
5.75789858725e-12
1.33968975311e-10
5.70377426943e-12
1.28373955262e-10
5.59499082011e-12
1.22934426717e-10
5.4395004207e-12
1.17688530356e-10
5.24586961643e-12
1.12665715708e-10
5.0227892509e-12
1.07887069797e-10
4.77862203846e-12
1.03366007799e-10
4.52103955291e-12
9.91092116589e-11
4.2567752323e-12
9.51176970805e-11
3.99149506724e-12
9.13879081187e-11
3.7297709115e-12
8.79127598537e-11
3.47513151379e-12
8.4682579477e-11
3.23016496257e-12
8.16859168838e-11
2.99664834707e-12
7.89102176585e-11
2.77568617294e-12
7.63423614696e-11
2.56784416348e-12
7.3969079739e-11
2.37327075412e-12
7.17772676034e-11
2.19180204818e-12
6.97542090366e-11
2.02304939149e-12
6.78877306224e-11
1.86646999975e-12
6.61663003899e-11
1.72142260488e-12
6.45790833925e-11
1.58721001403e-12
6.31159660226e-11
1.46311106034e-12
6.17675564614e-11
1.34840379066e-12
6.05251692719e-11
1.24238199141e-12
5.93807981283e-11
1.14436639016e-12
5.83270817701e-11
1.05371208678e-12
5.73572648133e-11
9.69813045897e-13
5.64651565458e-11
8.92104758714e-13
5.56450877769e-11
8.20065546311e-13
5.48918675535e-11
7.53217333272e-13
5.42007387125e-11
6.91126172909e-13
5.35673330732e-11
6.33403244244e-13
5.29876242621e-11
5.79706583997e-13
5.2457877905e-11
5.29744354227e-13
5.1974595914e-11
4.83280112573e-13
5.15344529678e-11
4.4014125391e-13
5.1134219671e-11
4.00231696919e-13
5.07706672718e-11
3.63550959552e-13
5.04404436387e-11
3.30222266828e-13
5.01399080145e-11
3.00534407304e-13
4.98649025847e-11
2.75004284479e-13
4.96104293733e-11
2.5447222437e-13
4.93701788331e-11
2.40249644367e-13
4.913582545e-11
2.34352674515e-13
4.88959493741e-11
2.39875489115e-13
4.86343710025e-11
2.61577987803e-13
4.83276433658e-11
3.06727353942e-13
4.79418642277e-11
3.85779003231e-13
4.74316765351e-11
5.10187781253e-13
6.54633983566e-13
9.53388265781e-10
2.28708607999e-10
8.59607453567e-10
2.93160746392e-10
7.45066716075e-10
2.43284664557e-10
6.41917369595e-10
1.8572370198e-10
5.56786704034e-10
1.39733567234e-10
4.8846981633e-10
1.05894843639e-10
4.33941295197e-10
8.14270366457e-11
3.90245152667e-10
6.36302906137e-11
3.5496510877e-10
5.0485944444e-11
3.26242509162e-10
4.05939763814e-11
3.02676459888e-10
3.3004143601e-11
2.83213997488e-10
2.70712234161e-11
2.67059305916e-10
2.23523616798e-11
2.53605339647e-10
1.85387703465e-11
2.42384143972e-10
1.54112366695e-11
2.33031188558e-10
1.28112117435e-11
2.25259764727e-10
1.06218880268e-11
2.18842496007e-10
8.75566280293e-12
2.13597862053e-10
7.14570905588e-12
2.0938027118e-10
5.74021713545e-12
2.06072664697e-10
4.4983967022e-12
2.03580946405e-10
3.38765599402e-12
2.0182974214e-10
2.38158068908e-12
2.00759140103e-10
1.45846418504e-12
2.00322161893e-10
6.00224209615e-13
2.00482783807e-10
-2.08405524697e-13
2.01214374557e-10
-9.80483395492e-13
2.02498449802e-10
-1.72731935676e-12
2.04323669437e-10
-2.45882691002e-12
2.06685018142e-10
-3.18378880885e-12
2.09583119506e-10
-3.9100518071e-12
2.13023642461e-10
-4.64466213548e-12
2.17016762109e-10
-5.39394815007e-12
2.21576639862e-10
-6.16355305339e-12
2.26720886744e-10
-6.95841750393e-12
2.32469973335e-10
-7.78270988021e-12
2.38846546168e-10
-8.63970010648e-12
2.45874608748e-10
-9.53157231803e-12
2.53578521515e-10
-1.04591716347e-11
2.61981775418e-10
-1.14216823947e-11
2.71105494282e-10
-1.24162389772e-11
2.80966629642e-10
-1.3437477625e-11
2.91575824357e-10
-1.44770479361e-11
3.02934947006e-10
-1.55231173939e-11
3.15034332758e-10
-1.65599195459e-11
3.27849816003e-10
-1.75674155868e-11
3.41339695525e-10
-1.85211548179e-11
3.55441836777e-10
-1.93924274329e-11
3.7007116899e-10
-2.01487948504e-11
3.85117872729e-10
-2.07550543809e-11
4.00446552525e-10
-2.11746436046e-11
4.15896649832e-10
-2.13714244194e-11
4.31284264417e-10
-2.13117214272e-11
4.46405442282e-10
-2.09664470076e-11
4.61040867913e-10
-2.03131392292e-11
4.74961803004e-10
-1.93377698997e-11
4.87937040443e-10
-1.803622491e-11
4.99740594664e-10
-1.64153895342e-11
5.10159792775e-10
-1.44937648708e-11
5.19003360611e-10
-1.23015061716e-11
5.2610899997e-10
-9.87973460457e-12
5.31349866915e-10
-7.27897398942e-12
5.34639322634e-10
-4.55664385269e-12
5.35933420707e-10
-1.77373035351e-12
5.35230847339e-10
1.00898144587e-12
5.32570431706e-10
3.73450510302e-12
5.28026763131e-10
6.35242262732e-12
5.21704695409e-10
8.82046928139e-12
5.13733564071e-10
1.11048598473e-11
5.04261787902e-10
1.31796035049e-11
4.93452218761e-10
1.50252823757e-11
4.81478289844e-10
1.6627786014e-11
4.68520766861e-10
1.79773725489e-11
4.54764784239e-10
1.90682454269e-11
4.40396838608e-10
1.98986490418e-11
4.25601516505e-10
2.04713219969e-11
4.10557902256e-10
2.07940379017e-11
3.95435804459e-10
2.08799397331e-11
3.80392081949e-10
2.07474419565e-11
3.6556741658e-10
2.0419603637e-11
3.51083846916e-10
1.99230199862e-11
3.37043276885e-10
1.92863922557e-11
3.23527030209e-10
1.85389912641e-11
3.10596387496e-10
1.77092229283e-11
2.98293935472e-10
1.6823452503e-11
2.8664550305e-10
1.5905171342e-11
2.75662443818e-10
1.49745205925e-11
2.65344049863e-10
1.40481337199e-11
2.55679922079e-10
1.31392305229e-11
2.46652174842e-10
1.2257885724e-11
2.38237398164e-10
1.1411400653e-11
2.30408342752e-10
1.0604719239e-11
2.23135320957e-10
9.84084544467e-12
2.16387339162e-10
9.12123379526e-12
2.10132986856e-10
8.4461371799e-12
2.04341115628e-10
7.81490496114e-12
1.98981340398e-10
7.22623092139e-12
1.94024395865e-10
6.67835412353e-12
1.89442375941e-10
6.16921806838e-12
1.85208882165e-10
5.69659406359e-12
1.81299101128e-10
5.25817501389e-12
1.77689829078e-10
4.85164514871e-12
1.7435945653e-10
4.47473083909e-12
1.71287924603e-10
4.12523668053e-12
1.68456660346e-10
3.80107061702e-12
1.65848498041e-10
3.50026100638e-12
1.63447589743e-10
3.22096830632e-12
1.61239308652e-10
2.96149339708e-12
1.5921014564e-10
2.72028456804e-12
1.57347599914e-10
2.49594476391e-12
1.55640061671e-10
2.28724094375e-12
1.54076685243e-10
2.09311722892e-12
1.52647247992e-10
1.91271406558e-12
1.51341990434e-10
1.74539578767e-12
1.50151429377e-10
1.59078993894e-12
1.49066135359e-10
1.44884240514e-12
1.48076461184e-10
1.31989406335e-12
1.47172207283e-10
1.20478617235e-12
1.4634220542e-10
1.10500422538e-12
1.45573804216e-10
1.0228717869e-12
1.44852246315e-10
9.61806171703e-13
1.44159958824e-10
9.26639137151e-13
1.43475864291e-10
9.23969327844e-13
1.42775055569e-10
9.62386435514e-13
1.42029795544e-10
1.05198751998e-12
1.41214327589e-10
1.20124739396e-12
1.4032087548e-10
1.40364031569e-12
1.5890968225e-12
9.76218192871e-10
1.89990411917e-10
9.62977369195e-10
3.06401562448e-10
9.06094967604e-10
3.00167058376e-10
8.33737029418e-10
2.58081632288e-10
7.60898586008e-10
2.12572002495e-10
6.93990421364e-10
1.72802999988e-10
6.35082482701e-10
1.40334966956e-10
5.84278422312e-10
1.14434342661e-10
5.40894530893e-10
9.38698275528e-11
5.04008950784e-10
7.74795482514e-11
4.7270020576e-10
6.43128804632e-11
4.46138911578e-10
5.36325095518e-11
4.23613134479e-10
4.48781308505e-11
4.04525753994e-10
3.76261430669e-11
3.88381563285e-10
3.15554197852e-11
3.74771959877e-10
2.64208077829e-11
3.63360445317e-10
2.20333954533e-11
3.53870041487e-10
1.82460597981e-11
3.46072813412e-10
1.49429306092e-11
3.3978132596e-10
1.20316984514e-11
3.34841747334e-10
9.43796959497e-12
3.31128305093e-10
7.10109298929e-12
3.28538831719e-10
4.97104932549e-12
3.26991180255e-10
3.00611151338e-12
3.26420330818e-10
1.17107013878e-12
3.26776045001e-10
-5.64122479947e-13
3.28020951202e-10
-2.22539160566e-12
3.30128969131e-10
-3.83533840953e-12
3.33083999672e-10
-5.4138576591e-12
3.36878815497e-10
-6.97860379027e-12
3.41514096398e-10
-8.54533077728e-12
3.46997560305e-10
-1.0128122877e-11
3.53343142527e-10
-1.17395259335e-11
3.60570178005e-10
-1.33905826581e-11
3.6870253898e-10
-1.50907711335e-11
3.77767679901e-10
-1.68478418103e-11
3.87795536844e-10
-1.86675463831e-11
3.98817227632e-10
-2.05532505833e-11
4.10863495147e-10
-2.25054247537e-11
4.23962839006e-10
-2.45210098078e-11
4.38139283711e-10
-2.65926651955e-11
4.53409745376e-10
-2.87079185976e-11
4.69780978023e-10
-3.08482577361e-11
4.87246116265e-10
-3.29882304968e-11
5.05780876051e-10
-3.50946520075e-11
5.25339539759e-10
-3.712604969e-11
5.45850922324e-10
-3.90325056775e-11
5.67214595432e-10
-4.07560667034e-11
5.89297712197e-10
-4.22318759263e-11
6.11932820758e-10
-4.33901254687e-11
6.34917050714e-10
-4.41588347319e-11
6.58013002651e-10
-4.44673363899e-11
6.80951554265e-10
-4.42502325769e-11
7.0343664937e-10
-4.34515015773e-11
7.25151973745e-10
-4.20284238944e-11
7.45769292166e-10
-3.99550500948e-11
7.64958121367e-10
-3.7225018503e-11
7.82396350883e-10
-3.38535868755e-11
7.97781351307e-10
-2.98787377809e-11
8.10841024045e-10
-2.53611568126e-11
8.21344128102e-10
-2.03828230224e-11
8.29109116615e-10
-1.5043953725e-11
8.34010667279e-10
-9.45819318745e-12
8.35983205194e-10
-3.74627429335e-12
8.35021038192e-10
1.97113494202e-12
8.31175243986e-10
7.58027879377e-12
8.24547989251e-10
1.29796500082e-11
8.15285291782e-10
1.80831332786e-11
8.03569291053e-10
2.28208214156e-11
7.89610891419e-10
2.71379592623e-11
7.73643251097e-10
3.09928747592e-11
7.55916198946e-10
3.43547872775e-11
7.36691360102e-10
3.72021582726e-11
7.1623762237e-10
3.95219288698e-11
6.9482655918e-10
4.13096573923e-11
6.72727550981e-10
4.25702757061e-11
6.50202555251e-10
4.3318979939e-11
6.27500715188e-10
4.35817275898e-11
6.04853173185e-10
4.33949334998e-11
5.82468535166e-10
4.28041934249e-11
5.60529385842e-10
4.18621233917e-11
5.39190125491e-10
4.06256092976e-11
5.18576215807e-10
3.91528601908e-11
4.98784751964e-10
3.75006487219e-11
4.79886141449e-10
3.57220275186e-11
4.61926599645e-10
3.38646802567e-11
4.44931151222e-10
3.19699385215e-11
4.28906855947e-10
3.00724009002e-11
4.13846026213e-10
2.82000343204e-11
3.99729268625e-10
2.63746195148e-11
3.86528238747e-10
2.46124086284e-11
3.74208052292e-10
2.29248856605e-11
3.62729332525e-10
2.13195468128e-11
3.52049904417e-10
1.98006451205e-11
3.42126160875e-10
1.83698653339e-11
3.32914138844e-10
1.70269129916e-11
3.24370344023e-10
1.57700129235e-11
3.1645236553e-10
1.45963209811e-11
3.09119316452e-10
1.35022565049e-11
3.02332134952e-10
1.24837659257e-11
2.96053773442e-10
1.15365277126e-11
2.90249301373e-10
1.06561092511e-11
2.84885940325e-10
9.83808459921e-12
2.79933048722e-10
9.07812170003e-12
2.75362067546e-10
8.37204575764e-12
2.71146437945e-10
7.71588515329e-12
2.67261496589e-10
7.1059046417e-12
2.63684354892e-10
6.53863055038e-12
2.60393763824e-10
6.01087142919e-12
2.57369966816e-10
5.51973795289e-12
2.54594539219e-10
5.06266498028e-12
2.52050213804e-10
4.63743940101e-12
2.49720687956e-10
4.24223686791e-12
2.47590409375e-10
3.87567159164e-12
2.45644333551e-10
3.53686314608e-12
2.43867648084e-10
3.22552549792e-12
2.42245456794e-10
2.94208312692e-12
2.40762421447e-10
2.68781954201e-12
2.39402363178e-10
2.46506069038e-12
2.38147843421e-10
2.27739003219e-12
2.36979773696e-10
2.12987461635e-12
2.35877170411e-10
2.02924149338e-12
2.34817293748e-10
1.9838453331e-12
2.33776648715e-10
2.00303117948e-12
2.32733731434e-10
2.09490496426e-12
2.31675031392e-10
2.2599479871e-12
2.30604728877e-10
2.47394353948e-12
2.64701505266e-12
9.71763970623e-10
1.55726437828e-10
9.86676172851e-10
2.91489351807e-10
9.68176764311e-10
3.18666458637e-10
9.27885216469e-10
2.98373171554e-10
8.77657383704e-10
2.62799826338e-10
8.25016549716e-10
2.25443824882e-10
7.74113658829e-10
1.91237848686e-10
7.26982779483e-10
1.61565212841e-10
6.84438506772e-10
1.36414091119e-10
6.46632726509e-10
1.15285319411e-10
6.13380404842e-10
9.75651930848e-11
5.8434333173e-10
8.2669573696e-11
5.59130353137e-10
7.00911005686e-11
5.37349802657e-10
5.94066847884e-11
5.18635143741e-10
5.02700700798e-11
5.02655926413e-10
4.24000166583e-11
4.89120927634e-10
3.55683859722e-11
4.77777322117e-10
2.95896572851e-11
4.68408004689e-10
2.4312240266e-11
4.60828209216e-10
1.9611486456e-11
4.54882021114e-10
1.5384150563e-11
4.50439076738e-10
1.15440306166e-11
4.47391576317e-10
8.0185434221e-12
4.45651648529e-10
4.74603345665e-12
4.45149058596e-10
1.6736547536e-12
4.45829229947e-10
-1.24429855946e-12
4.47651536125e-10
-4.04770187076e-12
4.50587823301e-10
-6.77162895687e-12
4.54621121104e-10
-9.44715806106e-12
4.59744495918e-10
-1.21019803447e-11
4.65960003963e-10
-1.47608396396e-11
4.73277701684e-10
-1.7445820396e-11
4.81714669288e-10
-2.01764922446e-11
4.91294001869e-10
-2.29699127471e-11
5.02043719063e-10
-2.5840484557e-11
5.13995541418e-10
-2.8799658998e-11
5.27183477341e-10
-3.18554756563e-11
5.41642162222e-10
-3.50119272083e-11
5.57404889139e-10
-3.82681417218e-11
5.74501273068e-10
-4.16173819717e-11
5.92954496461e-10
-4.50458749299e-11
6.12778099291e-10
-4.85315057648e-11
6.33972300535e-10
-5.20424412576e-11
6.56519877182e-10
-5.55357872771e-11
6.80381679659e-10
-5.89564324558e-11
7.05491933599e-10
-6.22362793964e-11
7.31753560144e-10
-6.52941058251e-11
7.59033837016e-10
-6.8036315032e-11
7.87160801508e-10
-7.03588098539e-11
8.15920849319e-10
-7.21501408121e-11
8.45057982213e-10
-7.32959335064e-11
8.74275091604e-10
-7.36844102837e-11
9.03237526926e-10
-7.32126314662e-11
9.31579013744e-10
-7.17929515244e-11
9.58909791044e-10
-6.93591645763e-11
9.84826678983e-10
-6.5871902426e-11
1.00892468197e-09
-6.13229878458e-11
1.03080966857e-09
-5.57385427534e-11
1.05011160284e-09
-4.91806453462e-11
1.06649770672e-09
-4.17472390017e-11
1.07968479944e-09
-3.35698999993e-11
1.08944992337e-09
-2.48090685197e-11
1.09563828317e-09
-1.56465509461e-11
1.09816761982e-09
-6.2756161226e-12
1.09702851633e-09
3.11022610382e-12
1.0922807705e-09
1.23280054381e-11
1.08404665436e-09
2.1213740485e-11
1.07250229927e-09
2.96274567717e-11
1.05786850465e-09
3.74545791348e-11
1.04040199266e-09
4.46044298559e-11
1.02038764628e-09
5.10071760876e-11
9.98131795889e-10
5.66105899195e-11
9.73956285896e-10
6.1377618671e-11
9.48192889373e-10
6.5285274827e-11
9.2117762803e-10
6.83248679206e-11
8.932447009e-10
7.05031524738e-11
8.64719980937e-10
7.18436505236e-11
8.35914324314e-10
7.23873363284e-11
8.07117149607e-10
7.21920621536e-11
7.78590828571e-10
7.1330470566e-11
7.50566368856e-10
6.98865415291e-11
7.23240702382e-10
6.7951236674e-11
6.96775673317e-10
6.56178526543e-11
6.71298614253e-10
6.29776737176e-11
6.46904244363e-10
6.01163657901e-11
6.23657543082e-10
5.7111352323e-11
6.01597236002e-10
5.40302186501e-11
5.80739564799e-10
5.09300473246e-11
5.61082072992e-10
4.78575033581e-11
5.42607211679e-10
4.48494599627e-11
5.25285635797e-10
4.19339653829e-11
5.09079120202e-10
3.91313837642e-11
4.93943068034e-10
3.64555829709e-11
4.79828616753e-10
3.39150817832e-11
4.66684366575e-10
3.15141021476e-11
4.5445776904e-10
2.92534983396e-11
4.43096217599e-10
2.71315532338e-11
4.32547884093e-10
2.51446443496e-11
4.22762341877e-10
2.32877894703e-11
4.1369101376e-10
2.15550856258e-11
4.05287477396e-10
1.99400563986e-11
3.975076571e-10
1.84359225648e-11
3.90309925454e-10
1.70358098719e-11
3.83655134851e-10
1.57329065036e-11
3.7750659427e-10
1.4520581035e-11
3.71830004238e-10
1.33924703497e-11
3.66593358976e-10
1.23425454661e-11
3.61766823213e-10
1.13651622526e-11
3.57322587952e-10
1.04551029451e-11
3.53234708587e-10
9.60761387375e-12
3.49478926167e-10
8.81844420467e-12
3.46032472208e-10
8.08389040768e-12
3.42873855408e-10
7.40085091424e-12
3.39982628894e-10
6.76689555529e-12
3.37339135532e-10
6.18035412634e-12
3.34924230694e-10
5.64042814004e-12
3.32718983399e-10
5.14732839094e-12
3.30704363138e-10
4.70243797159e-12
3.28860928855e-10
4.30849334026e-12
3.27168555781e-10
3.96976172879e-12
3.25606265942e-10
3.69216335914e-12
3.24152280363e-10
3.48322633032e-12
3.22784489067e-10
3.35163626824e-12
3.21481641543e-10
3.30587875534e-12
3.20225642626e-10
3.35090428915e-12
3.19005037268e-10
3.48055401364e-12
3.17817529304e-10
3.6614522279e-12
3.804800479e-12
9.63963996351e-10
1.29262436994e-10
9.87769495894e-10
2.6768384267e-10
9.89939015063e-10
3.16496929955e-10
9.72555614057e-10
3.1575656307e-10
9.42561080238e-10
2.92794350429e-10
9.05996800589e-10
2.62008094663e-10
8.67052860574e-10
2.30181778774e-10
8.28372482551e-10
2.00245580927e-10
7.91508850423e-10
1.73277713321e-10
7.57298853804e-10
1.49495306137e-10
7.26127746788e-10
1.28736290248e-10
6.98105956703e-10
1.10691353989e-10
6.73183587829e-10
9.50134597214e-11
6.51223023401e-10
8.13672395896e-11
6.32044112359e-10
6.94489716073e-11
6.15451720065e-10
5.89923995783e-11
6.01252073457e-10
4.97680233659e-11
5.89262064641e-10
4.15796570824e-11
5.79314182015e-10
3.42601140931e-11
5.71258767274e-10
2.76668926576e-11
5.6496467151e-10
2.16782380747e-11
5.60318983931e-10
1.6189710276e-11
5.57226251507e-10
1.11112682918e-11
5.55607445817e-10
6.36483201164e-12
5.55398829912e-10
1.88226397887e-12
5.56550812937e-10
-2.39628774769e-12
5.5902683225e-10
-6.52372678659e-12
5.62802290664e-10
-1.05470923435e-11
5.67863546661e-10
-1.4508418349e-11
5.74206943334e-10
-1.84453805477e-11
5.81837856367e-10
-2.23917553809e-11
5.90769734262e-10
-2.63777000862e-11
6.01023097533e-10
-3.04298563279e-11
6.12624458403e-10
-3.45712733411e-11
6.25605116684e-10
-3.88211413948e-11
6.39999782761e-10
-4.31943223433e-11
6.55844973268e-10
-4.77006620548e-11
6.73177121825e-10
-5.23440701495e-11
6.92030344768e-10
-5.7121357447e-11
7.12433803934e-10
-6.20208321818e-11
7.34408614737e-10
-6.70206749499e-11
7.57964263042e-10
-7.20871413282e-11
7.83094519073e-10
-7.71726825183e-11
8.09772876945e-10
-8.22141282399e-11
8.37947604252e-10
-8.71311406782e-11
8.67536562161e-10
-9.18252159739e-11
8.9842204735e-10
-9.61795674514e-11
9.30446008945e-10
-1.00060250821e-10
9.6340608747e-10
-1.03318860424e-10
9.97052989145e-10
-1.05797012463e-10
1.03108971564e-09
-1.07332628128e-10
1.06517309697e-09
-1.07767758119e-10
1.0989179135e-09
-1.06957413285e-10
1.13190367065e-09
-1.04778673207e-10
1.16368385533e-09
-1.01139313702e-10
1.19379732102e-09
-9.59853332207e-11
1.22178134489e-09
-8.93069784322e-11
1.24718585644e-09
-8.11430236477e-11
1.26958828839e-09
-7.15830504083e-11
1.28860840247e-09
-6.07673310581e-11
1.303922287e-09
-4.88837684081e-11
1.31527453738e-09
-3.61613094292e-11
1.32248747545e-09
-2.28594867436e-11
1.32546630046e-09
-9.25444615982e-12
1.32419948457e-09
4.37702971848e-12
1.31875453045e-09
1.77729404296e-11
1.30927008739e-09
3.06981579505e-11
1.29594596413e-09
4.29515486069e-11
1.2790326227e-09
5.4367883961e-11
1.25882134838e-09
6.48156632758e-11
1.23563566287e-09
7.41928172612e-11
1.20982397417e-09
8.24222318273e-11
1.18175309402e-09
8.9448450419e-11
1.15180208969e-09
9.52362300104e-11
1.12035593266e-09
9.97709757276e-11
1.08779858447e-09
1.03060452055e-10
1.05450547988e-09
1.05136707606e-10
1.02083572187e-09
1.06057048402e-10
9.87124560007e-10
1.05903179971e-10
9.53676814948e-10
1.0477817377e-10
9.20761824157e-10
1.02801492802e-10
8.88610269398e-10
1.00102754389e-10
8.57412977579e-10
9.68151099127e-11
8.27321542866e-10
9.30690763664e-11
7.98450444776e-10
8.89874342279e-11
7.70880254332e-10
8.4681515458e-11
7.44661513449e-10
8.02489344279e-11
7.19818920882e-10
7.57726168796e-11
6.96355531828e-10
7.13208713331e-11
6.74256760277e-10
6.69482122451e-11
6.53494047131e-10
6.26966609107e-11
6.3402811942e-10
5.85972953943e-11
6.15811811947e-10
5.46718757517e-11
5.98792456247e-10
5.09344240829e-11
5.82913862219e-10
4.73926839382e-11
5.68117930729e-10
4.4049418676e-11
5.54345940416e-10
4.09035333637e-11
5.41539553795e-10
3.79510216948e-11
5.29641585287e-10
3.51857495113e-11
5.18596571064e-10
3.26000921391e-11
5.08351175565e-10
3.01854448601e-11
4.98854465593e-10
2.79326261282e-11
4.90058077679e-10
2.58321919282e-11
4.81916300746e-10
2.38746780971e-11
4.74386091548e-10
2.20507853407e-11
4.67427037553e-10
2.03515198739e-11
4.61001278209e-10
1.87683006963e-11
4.55073393587e-10
1.72930430993e-11
4.4961026645e-10
1.59182265887e-11
4.44580922582e-10
1.46369545192e-11
4.39956351961e-10
1.34430118249e-11
4.35709312815e-10
1.23309267722e-11
4.31814119092e-10
1.1296042035e-11
4.28246412217e-10
1.03346000112e-11
4.24982917712e-10
9.44384636682e-12
4.22001189273e-10
8.62215448679e-12
4.1927934518e-10
7.86917054764e-12
4.16795807759e-10
7.18597364554e-12
4.14529064569e-10
6.5752349767e-12
4.12457484068e-10
6.04134092835e-12
4.10559237668e-10
5.59040874136e-12
4.08812407419e-10
5.23005593138e-12
4.07195386734e-10
4.96865671882e-12
4.05687689215e-10
4.81357651563e-12
4.04271167301e-10
4.76742686673e-12
4.02931068643e-10
4.82065349071e-12
4.01654276786e-10
4.93824483991e-12
5.04094045063e-12
9.57587219788e-10
1.09175212558e-10
9.82682727215e-10
2.42588325265e-10
9.95319456424e-10
3.03860191033e-10
9.92749914947e-10
3.18326094562e-10
9.78118302116e-10
3.07425952931e-10
9.55524789233e-10
2.84601597051e-10
9.28419646336e-10
2.57286911116e-10
8.99334889664e-10
2.29330327032e-10
8.70007586645e-10
2.02605005783e-10
8.41572940529e-10
1.77929941719e-10
8.14736354783e-10
1.55572865491e-10
7.89906444007e-10
1.35521254306e-10
7.6729206315e-10
1.17627830172e-10
7.46971028265e-10
1.01688264142e-10
7.28937916752e-10
8.74820728757e-11
7.13136875858e-10
7.4793430339e-11
6.99483874964e-10
6.34210142592e-11
6.87881609153e-10
5.31819130539e-11
6.78229329669e-10
4.3912383921e-11
6.70429196965e-10
3.54670159229e-11
6.64390266171e-10
2.77171596753e-11
6.60030872379e-10
2.05490951572e-11
6.5727994329e-10
1.3862188784e-11
6.56077599886e-10
7.5671671799e-12
6.56375289276e-10
1.58456674842e-12
6.58135613371e-10
-4.15661923429e-12
6.61331953431e-10
-9.72007374549e-12
6.65947973407e-10
-1.51631186643e-11
6.71977030868e-10
-2.05374815498e-11
6.79421513135e-10
-2.58898678743e-11
6.88292101908e-10
-3.12623484743e-11
6.98606957009e-10
-3.66925586797e-11
7.10390799304e-10
-4.22137012146e-11
7.23673864441e-10
-4.78543400638e-11
7.38490690847e-10
-5.3637968294e-11
7.54878698691e-10
-5.95823294654e-11
7.72876509827e-10
-6.56984711518e-11
7.92521954067e-10
-7.19895108948e-11
8.13849703624e-10
-7.84491019383e-11
8.36888478169e-10
-8.50595999426e-11
8.61657767767e-10
-9.17899559272e-11
8.88164034274e-10
-9.85933972317e-11
9.16396375091e-10
-1.05405010643e-10
9.46321672164e-10
-1.12139410405e-10
9.77879305883e-10
-1.18688757198e-10
1.01097559292e-09
-1.24921483434e-10
1.0454782069e-09
-1.30682159435e-10
1.08121095671e-09
-1.35792976205e-10
1.11794941176e-09
-1.4005728865e-10
1.15541795042e-09
-1.43265521955e-10
1.19328883025e-09
-1.45203476613e-10
1.23118380328e-09
-1.45662697826e-10
1.26867861159e-09
-1.44452186647e-10
1.30531042752e-09
-1.41410453003e-10
1.34058801767e-09
-1.36416867188e-10
1.37400420055e-09
-1.29401479658e-10
1.40505007762e-09
-1.20352820289e-10
1.43323051455e-09
-1.09323427725e-10
1.45808033375e-09
-9.64328403896e-11
1.47918058176e-09
-8.18675548032e-11
1.49617404971e-09
-6.58772183006e-11
1.50877897463e-09
-4.8766223492e-11
1.51679957602e-09
-3.08800851206e-11
1.52013200147e-09
-1.25868766408e-11
1.51876471568e-09
5.74430259052e-12
1.51277341518e-09
2.37642205697e-11
1.50231171936e-09
4.11598265706e-11
1.48759959562e-09
5.76636390159e-11
1.46891148988e-09
7.30559511013e-11
1.44656556555e-09
8.71615447301e-11
1.42091461402e-09
9.98437227046e-11
1.39233848496e-09
1.10998312632e-10
1.36123750828e-09
1.20549377611e-10
1.32802622793e-09
1.28447460492e-10
1.29312676572e-09
1.34670388392e-10
1.256961351e-09
1.39225818159e-10
1.2199439673e-09
1.4215404409e-10
1.1824715209e-09
1.43529449405e-10
1.14491525648e-09
1.43459401121e-10
1.10761324328e-09
1.42080146067e-10
1.07086462891e-09
1.39550068757e-10
1.03492607672e-09
1.3604127077e-10
1.00001046719e-09
1.31730686212e-10
9.66287652532e-10
1.2679186037e-10
9.3388686052e-10
1.21388198051e-10
9.02900264759e-10
1.15668085407e-10
8.73387248998e-10
1.09761926594e-10
8.45378962274e-10
1.03780882099e-10
8.1888285381e-10
9.78169602047e-11
7.93886971259e-10
9.19440769809e-11
7.70363887213e-10
8.62197287469e-11
7.48274184215e-10
8.06869836629e-11
7.27569475177e-10
7.53765713888e-11
7.08194968716e-10
7.03089183652e-11
6.90091608422e-10
6.54960331463e-11
6.73197826667e-10
6.09431903543e-11
6.57450957867e-10
5.66503929869e-11
6.4278835722e-10
5.26136139973e-11
6.29148268409e-10
4.88258307189e-11
6.16470480688e-10
4.52778729449e-11
6.04696810984e-10
4.19591082572e-11
5.93771442567e-10
3.88579888036e-11
5.83641146881e-10
3.5962482369e-11
5.74255411398e-10
3.32604087956e-11
5.65566492055e-10
3.07397002979e-11
5.57529405867e-10
2.83886020472e-11
5.50101875851e-10
2.61958270157e-11
5.43244238248e-10
2.41506772988e-11
5.36919319395e-10
2.22431422887e-11
5.31092288127e-10
2.04639828671e-11
5.25730487747e-10
1.88048094803e-11
5.20803250805e-10
1.72581611756e-11
5.16281698832e-10
1.58175916274e-11
5.12138529265e-10
1.44777673553e-11
5.08347791758e-10
1.32345817901e-11
5.04884657537e-10
1.20852867721e-11
5.01725187259e-10
1.1028639034e-11
4.98846106719e-10
1.00650525628e-11
4.96224604725e-10
9.19673553231e-12
4.93838175036e-10
8.42776941486e-12
4.91664532568e-10
7.76405028307e-12
4.89681641422e-10
7.2129465049e-12
4.87867886652e-10
6.78241132137e-12
4.86202371629e-10
6.47909182189e-12
4.84665130652e-10
6.30466854425e-12
4.83236460904e-10
6.24932409933e-12
4.81893242043e-10
6.28146446914e-12
6.33540364925e-12
9.52980810245e-10
9.36943969963e-11
9.76660731044e-10
2.18908393795e-10
9.94168623959e-10
2.863522876e-10
1.00078335515e-09
3.11711352907e-10
9.9712873834e-10
3.11080559056e-10
9.85610360554e-10
2.96119964018e-10
9.68766756506e-10
2.74130504299e-10
9.48727080223e-10
2.49369992446e-10
9.27119396068e-10
2.24212679081e-10
9.05127746471e-10
1.9992158048e-10
8.83583036397e-10
1.77117564758e-10
8.63049132742e-10
1.56055147191e-10
8.43893811265e-10
1.36783140927e-10
8.26343910906e-10
1.1923815384e-10
8.10526963687e-10
1.03299009512e-10
7.96502074794e-10
8.88183087456e-11
7.84282557665e-10
7.5640521021e-11
7.73852368567e-10
6.36120919273e-11
7.65177934772e-10
5.25868076583e-11
7.58216589219e-10
4.24283516128e-11
7.52922520847e-10
3.30112184091e-11
7.49250915353e-10
2.42206912676e-11
7.47160783243e-10
1.59523118015e-11
7.46616838583e-10
8.11110307463e-12
7.47590692185e-10
6.10704749539e-13
7.50061546086e-10
-6.62748112059e-12
7.54016521525e-10
-1.3675056709e-11
7.59450729643e-10
-2.05973337946e-11
7.66367130414e-10
-2.74538887623e-11
7.74776221388e-10
-3.42989646559e-11
7.84695575969e-10
-4.11817081581e-11
7.9614923579e-10
-4.81462228222e-11
8.09166949078e-10
-5.52314179565e-11
8.23783236155e-10
-6.24706296342e-11
8.40036253581e-10
-6.98909871467e-11
8.57966419843e-10
-7.75124959762e-11
8.7761475767e-10
-8.53468079243e-11
8.99020901446e-10
-9.33956521806e-11
9.22220713215e-10
-1.01648909642e-10
9.47243448764e-10
-1.10082329705e-10
9.74108417573e-10
-1.18654917081e-10
1.0028210901e-09
-1.27306060089e-10
1.03336862588e-09
-1.35952534595e-10
1.06571483147e-09
-1.44485601896e-10
1.09979461329e-09
-1.52768522518e-10
1.13550807191e-09
-1.6063492308e-10
1.17271449433e-09