/*--------------------------------*- C++ -*----------------------------------*\
  =========                 |
  \\      /  F ield         | OpenFOAM: The Open Source CFD Toolbox
   \\    /   O peration     | Website:  https://openfoam.org
    \\  /    A nd           | Version:  7
     \\/     M anipulation  |
\*---------------------------------------------------------------------------*/
FoamFile
{
    version     2.0;
    format      ascii;
    class       volVectorField;
    location    "1260";
    object      U;
}
// * * * * * * * * * * * * * * * * * * * * * * * * * * * * * * * * * * * * * //

dimensions      [0 1 -1 0 0 0 0];

internalField   nonuniform List<vector> 
8192
(
(0.00104345799908 0.000156542000922 0)
(0.000759312834215 0.000127603161988 0)
(0.000549313550569 8.23961176484e-05 0)
(0.000414069836576 5.2847592147e-05 0)
(0.000326276378 3.49458619625e-05 0)
(0.000267280614457 2.40498968195e-05 0)
(0.000226015657721 1.72150549952e-05 0)
(0.000196042737908 1.27578598381e-05 0)
(0.0001735530917 9.73178138499e-06 0)
(0.000156223619241 7.59768611902e-06 0)
(0.000142585542928 6.04038528883e-06 0)
(0.000131675540916 4.86961188735e-06 0)
(0.000122839410664 3.96651361125e-06 0)
(0.000115618613164 3.25427923415e-06 0)
(0.00010968269866 2.68163073057e-06 0)
(0.000104787775141 2.21328838477e-06 0)
(0.00010075018127 1.82430124121e-06 0)
(9.74292998089e-05 1.49657615719e-06 0)
(9.47160280232e-05 1.21669177634e-06 0)
(9.25248483901e-05 9.74484245819e-07 0)
(9.07882519263e-05 7.62108880279e-07 0)
(8.94527370937e-05 5.73402924411e-07 0)
(8.84758881552e-05 4.0344333324e-07 0)
(8.78242087609e-05 2.48233769803e-07 0)
(8.74714941581e-05 1.04478974537e-07 0)
(8.73975943018e-05 -3.05804953457e-08 0)
(8.75874647868e-05 -1.59290835843e-07 0)
(8.80304317615e-05 -2.83676399185e-07 0)
(8.87196180332e-05 -4.05509491147e-07 0)
(8.96514918514e-05 -5.26363242551e-07 0)
(9.08255075909e-05 -6.47650647471e-07 0)
(9.22438132278e-05 -7.7065230697e-07 0)
(9.39110035082e-05 -8.96534390498e-07 0)
(9.58338998012e-05 -1.02635734576e-06 0)
(9.80213381552e-05 -1.16107540542e-06 0)
(0.000100483946543 -1.30152625615e-06 0)
(0.00010323389072 -1.44840999794e-06 0)
(0.000106284565973 -1.60225605664e-06 0)
(0.000109650209395 -1.76337682077e-06 0)
(0.000113345404963 -1.93180678353e-06 0)
(0.00011738445204 -2.10722684935e-06 0)
(0.000121780568395 -2.28887452329e-06 0)
(0.000126544902513 -2.47544302957e-06 0)
(0.00013168533887 -2.66497514554e-06 0)
(0.000137205095469 -2.85476164112e-06 0)
(0.00014310113678 -3.04125822743e-06 0)
(0.000149362457206 -3.22003915122e-06 0)
(0.000155968328478 -3.38580751403e-06 0)
(0.000162886643776 -3.53248169407e-06 0)
(0.000170072524092 -3.65337115467e-06 0)
(0.000177467368416 -3.74144447465e-06 0)
(0.000184998520283 -3.78967766269e-06 0)
(0.000192579685433 -3.79145698052e-06 0)
(0.000200112174154 -3.74100077688e-06 0)
(0.00020748697055 -3.63376460699e-06 0)
(0.000214587566769 -3.46680103545e-06 0)
(0.000221293454267 -3.23905690187e-06 0)
(0.000227484136122 -2.95159705665e-06 0)
(0.000233043500673 -2.60774197877e-06 0)
(0.000237864361061 -2.21309600133e-06 0)
(0.000241852907688 -1.77543203689e-06 0)
(0.00024493274873 -1.30439485402e-06 0)
(0.000247048154528 -8.11001719171e-07 0)
(0.000248166121145 -3.0696091481e-07 0)
(0.000248276970678 1.96109978535e-07 0)
(0.000247393422992 6.87430920182e-07 0)
(0.000245548359104 1.15762091665e-06 0)
(0.000242791721489 1.59899959783e-06 0)
(0.000239187087283 2.00561276191e-06 0)
(0.000234808408966 2.37303935938e-06 0)
(0.00022973725039 2.69808916822e-06 0)
(0.000224060624496 2.97850339783e-06 0)
(0.000217869344951 3.21274017178e-06 0)
(0.000211256681228 3.39988557862e-06 0)
(0.000204317068329 3.53968799881e-06 0)
(0.000197144662645 3.63267762243e-06 0)
(0.00018983163646 3.68030832221e-06 0)
(0.000182466233118 3.68505509584e-06 0)
(0.000175130723309 3.65041553244e-06 0)
(0.000167899475566 3.58079412487e-06 0)
(0.000160837364466 3.48128026925e-06 0)
(0.000153998692527 3.35735655451e-06 0)
(0.000147426717481 3.21458512057e-06 0)
(0.000141153782723 3.05831810461e-06 0)
(0.000135201969662 2.89346531386e-06 0)
(0.000129584140453 2.72433614867e-06 0)
(0.000124305221593 2.55455684303e-06 0)
(0.000119363587327 2.38705338336e-06 0)
(0.000114752427502 2.22408416883e-06 0)
(0.000110461017172 2.06730557604e-06 0)
(0.000106475837671 1.91785494213e-06 0)
(0.000102781526107 1.77643915068e-06 0)
(9.9361650642e-05 1.64342026463e-06 0)
(9.61993223734e-05 1.51889328264e-06 0)
(9.32776622991e-05 1.40275331083e-06 0)
(9.05801450496e-05 1.29475161055e-06 0)
(8.80908413817e-05 1.19454079984e-06 0)
(8.57945798479e-05 1.10171046713e-06 0)
(8.36770456207e-05 1.01581440898e-06 0)
(8.17248316256e-05 9.36391078619e-07 0)
(7.99254543897e-05 8.62978426023e-07 0)
(7.82673444693e-05 7.95124474501e-07 0)
(7.67398191361e-05 7.32394489704e-07 0)
(7.5333043135e-05 6.74375735539e-07 0)
(7.40379818134e-05 6.20680349374e-07 0)
(7.28463496698e-05 5.70947045577e-07 0)
(7.17505563665e-05 5.24841949639e-07 0)
(7.07436514115e-05 4.82059093294e-07 0)
(6.98192680102e-05 4.42320750662e-07 0)
(6.89715659428e-05 4.05378076316e-07 0)
(6.81951726946e-05 3.71012213758e-07 0)
(6.74851213869e-05 3.39036386706e-07 0)
(6.68367832441e-05 3.09299272047e-07 0)
(6.62457912844e-05 2.81690402502e-07 0)
(6.57079504889e-05 2.56148286028e-07 0)
(6.52191276434e-05 2.32672614113e-07 0)
(6.47751109828e-05 2.1134225077e-07 0)
(6.43714250581e-05 1.92342020675e-07 0)
(6.40030787835e-05 1.76002742067e-07 0)
(6.36642124531e-05 1.62862223597e-07 0)
(6.33475892521e-05 1.53759772395e-07 0)
(6.30438427412e-05 1.4998571169e-07 0)
(6.27403358874e-05 1.53520313034e-07 0)
(6.2419405041e-05 1.67409912194e-07 0)
(6.20556891958e-05 1.96305506523e-07 0)
(6.16124848598e-05 2.46898562068e-07 0)
(6.10390660882e-05 3.26520180002e-07 0)
(6.02935803692e-05 4.18965749483e-07 0)
(0.0012101684901 0.000302915510041 0)
(0.00116031726038 0.000315226039679 0)
(0.00102699146857 0.000238098302965 0)
(0.000887669814829 0.000171710761414 0)
(0.000767170607123 0.000124375344992 0)
(0.000668964173033 9.18225967482e-05 0)
(0.000590343111377 6.93283584484e-05 0)
(0.000527479326633 5.34812458309e-05 0)
(0.00047693456732 4.20427858292e-05 0)
(0.000435972875476 3.35778310031e-05 0)
(0.000402508140192 2.71630371935e-05 0)
(0.000374969892721 2.21951948737e-05 0)
(0.000352174914179 1.82720250863e-05 0)
(0.00033322537316 1.51190922559e-05 0)
(0.000317433269516 1.2544822199e-05 0)
(0.00030426581282 1.04124639006e-05 0)
(0.000293306210103 8.62230957834e-06 0)
(0.00028422544687 7.10020035106e-06 0)
(0.000276761829158 5.7899455721e-06 0)
(0.000270706005269 4.64822321251e-06 0)
(0.000265889878961 3.64108276969e-06 0)
(0.000262178311105 2.74150276058e-06 0)
(0.000259462840669 1.92765497425e-06 0)
(0.000257656884636 1.18165084823e-06 0)
(0.000256692033277 4.88622468691e-07 0)
(0.000256515165248 -1.63960031152e-07 0)
(0.000257086181353 -7.86800208958e-07 0)
(0.00025837620759 -1.38916078751e-06 0)
(0.000260366156313 -1.97915871356e-06 0)
(0.000263045560051 -2.56398808022e-06 0)
(0.000266411608094 -3.15008380401e-06 0)
(0.000270468327659 -3.74323607368e-06 0)
(0.000275225858925 -4.34866120654e-06 0)
(0.000280699777261 -4.97103129993e-06 0)
(0.000286910417027 -5.61446260794e-06 0)
(0.00029388215045 -6.28246057949e-06 0)
(0.000301642572482 -6.97781806609e-06 0)
(0.000310221539147 -7.70246234018e-06 0)
(0.000319650003369 -8.45724666696e-06 0)
(0.000329958590037 -9.24168351611e-06 0)
(0.000341175852609 -1.00536197947e-05 0)
(0.000353326159311 -1.08888602033e-05 0)
(0.000366427170559 -1.17407537087e-05 0)
(0.000380486893672 -1.25997702776e-05 0)
(0.000395500339049 -1.34531101505e-05 0)
(0.000411445855207 -1.4284404203e-05 0)
(0.000428281287378 -1.50735782347e-05 0)
(0.000445940180673 -1.57969610711e-05 0)
(0.000464328323691 -1.64277103983e-05 0)
(0.0004833209867 -1.69366059584e-05 0)
(0.000502761232163 -1.72932163816e-05 0)
(0.000522459649508 -1.74673892911e-05 0)
(0.000542195785119 -1.74309586939e-05 0)
(0.000561721412287 -1.71595268617e-05 0)
(0.000580765638524 -1.66341737137e-05 0)
(0.000599041709387 -1.58429737713e-05 0)
(0.000616255259806 -1.47822408442e-05 0)
(0.000632113686468 -1.34574463585e-05 0)
(0.000646336247961 -1.18837514961e-05 0)
(0.000658664418167 -1.00860599512e-05 0)
(0.000668871910771 -8.09846218382e-06 0)
(0.000676773674806 -5.96293820726e-06 0)
(0.000682233081311 -3.72725378489e-06 0)
(0.000685166555738 -1.44214834106e-06 0)
(0.00068554513155 8.41858103895e-07 0)
(0.000683392818589 3.07751418611e-06 0)
(0.000678782204696 5.22317139814e-06 0)
(0.000671828133465 7.24409993792e-06 0)
(0.000662680486067 9.11272306419e-06 0)
(0.000651517025263 1.08079856025e-05 0)
(0.000638536964264 1.23142698887e-05 0)
(0.000623955525507 1.36202864468e-05 0)
(0.000607999396291 1.47182586031e-05 0)
(0.000590902752704 1.56035626518e-05 0)
(0.000572903438622 1.62748233856e-05 0)
(0.000554238947272 1.67343237004e-05 0)
(0.000535142028007 1.69884925793e-05 0)
(0.000515835972298 1.70482165251e-05 0)
(0.000496529847301 1.69287783846e-05 0)
(0.000477414079058 1.66493404525e-05 0)
(0.000458656808637 1.62320130604e-05 0)
(0.000440401359232 1.57006475981e-05 0)
(0.00042276499654 1.50795395296e-05 0)
(0.000405838987332 1.43922207788e-05 0)
(0.0003896898067 1.36604749158e-05 0)
(0.000374361240654 1.29036458076e-05 0)
(0.000359877085996 1.21382500222e-05 0)
(0.000346244155956 1.13778589641e-05 0)
(0.000333455342042 1.06331917035e-05 0)
(0.000321492542029 9.91235243943e-06 0)
(0.000310329326724 9.22115136005e-06 0)
(0.000299933274186 8.56345946365e-06 0)
(0.000290267944773 7.94156134922e-06 0)
(0.000281294502476 7.3564829116e-06 0)
(0.000272973008651 6.80828110597e-06 0)
(0.00026526342559 6.29629078568e-06 0)
(0.000258126371856 5.81932858953e-06 0)
(0.000251523671208 5.37585710618e-06 0)
(0.000245418733956 4.96411397275e-06 0)
(0.000239776805188 4.58221127932e-06 0)
(0.000234565109307 4.22821043491e-06 0)
(0.000229752915332 3.90017736968e-06 0)
(0.000225311542789 3.59622222672e-06 0)
(0.000221214323926 3.31452721108e-06 0)
(0.000217436534368 3.05336554426e-06 0)
(0.000213955301368 2.81111408966e-06 0)
(0.000210749496182 2.58626166568e-06 0)
(0.000207799614973 2.37741486743e-06 0)
(0.000205087650747 2.1833028742e-06 0)
(0.000202596957155 2.00278272522e-06 0)
(0.000200312103414 1.83484641776e-06 0)
(0.000198218718025 1.67863141321e-06 0)
(0.000196303317271 1.53343627402e-06 0)
(0.000194553112593 1.39874370661e-06 0)
(0.000192955788679 1.27425384695e-06 0)
(0.000191499241431 1.1599317534e-06 0)
(0.000190171261787 1.05607445131e-06 0)
(0.000188959147819 9.6340517098e-07 0)
(0.00018784922413 8.83205446311e-07 0)
(0.000186826246167 8.17500167215e-07 0)
(0.00018587267234 7.69315722285e-07 0)
(0.000184967811289 7.43034759466e-07 0)
(0.000184086926794 7.44860682854e-07 0)
(0.000183200588711 7.83337230923e-07 0)
(0.000182275104713 8.69577519311e-07 0)
(0.000181276238806 1.0156968942e-06 0)
(0.000180182529965 1.22484998204e-06 0)
(0.000179012664625 1.43598771588e-06 0)
(0.00122477964344 0.000267967372746 0)
(0.00124108515972 0.000383719877658 0)
(0.00119620629555 0.000347809102677 0)
(0.00111349247809 0.000284035413932 0)
(0.00102056679387 0.000225475564627 0)
(0.000931128964718 0.000178366619921 0)
(0.000850606658602 0.000141927682305 0)
(0.000780390979209 0.000113961365296 0)
(0.000720110690051 9.2387694078e-05 0)
(0.000668738228273 7.5567055765e-05 0)
(0.000625093860188 6.22828954011e-05 0)
(0.000588057035096 5.16503890995e-05 0)
(0.000556641309476 4.30275152194e-05 0)
(0.000530008888623 3.59455445846e-05 0)
(0.000507460683059 3.0058660131e-05 0)
(0.000488418254823 2.51084924969e-05 0)
(0.000472404739324 2.08993814272e-05 0)
(0.000459027511554 1.72811024647e-05 0)
(0.000447963427135 1.41367293857e-05 0)
(0.000438946649198 1.13740259756e-05 0)
(0.000431758766908 8.91927443019e-06 0)
(0.000426220833554 6.71279934931e-06 0)
(0.00042218696756 4.70568320933e-06 0)
(0.000419539207663 2.85732844699e-06 0)
(0.000418183367087 1.13362838297e-06 0)
(0.000418045680524 -4.94417922972e-07 0)
(0.00041907007757 -2.05176000073e-06 0)
(0.000421215949013 -3.56010097042e-06 0)
(0.000424456300034 -5.03851812424e-06 0)
(0.000428776201708 -6.50393126344e-06 0)
(0.000434171463613 -7.971444854e-06 0)
(0.000440647460289 -9.45458240796e-06 0)
(0.000448218049812 -1.09654234135e-05 0)
(0.00045690452514 -1.25146468553e-05 0)
(0.000466734538871 -1.41114807279e-05 0)
(0.000477740940084 -1.57635530819e-05 0)
(0.000489960458717 -1.74766377533e-05 0)
(0.000503432169265 -1.92542866568e-05 0)
(0.000518195662578 -2.10973416885e-05 0)
(0.000534288853857 -2.30033230095e-05 0)
(0.000551745358539 -2.49656986705e-05 0)
(0.000570591378616 -2.69730535824e-05 0)
(0.000590842062975 -2.90081956302e-05 0)
(0.000612497340344 -3.10472626501e-05 0)
(0.000635537275082 -3.30589257942e-05 0)
(0.000659917066118 -3.50038177772e-05 0)
(0.000685561895733 -3.68343427171e-05 0)
(0.000712361931364 -3.84950362473e-05 0)
(0.000740167876883 -3.99236292971e-05 0)
(0.000768787541091 -4.10529151037e-05 0)
(0.000797983917742 -4.18134261354e-05 0)
(0.000827475234154 -4.21368069179e-05 0)
(0.000856937316426 -4.19596505626e-05 0)
(0.000886008450326 -4.12274870943e-05 0)
(0.000914296718794 -3.98986003991e-05 0)
(0.000941389610183 -3.79474047965e-05 0)
(0.000966865544661 -3.53671957843e-05 0)
(0.00099030686224 -3.21721449022e-05 0)
(0.0010113137294 -2.83984016971e-05 0)
(0.00102951832023 -2.41041043099e-05 0)
(0.00104459849737 -1.93680368812e-05 0)
(0.00105629007662 -1.42866737372e-05 0)
(0.00106439666169 -8.96949570569e-06 0)
(0.00106879607838 -3.53280297399e-06 0)
(0.00106944271577 1.90727448825e-06 0)
(0.00106636562059 7.24146169394e-06 0)
(0.00105966286927 1.23725264867e-05 0)
(0.00104949329986 1.72183056384e-05 0)
(0.00103606693301 2.17124360083e-05 0)
(0.00101963531678 2.5803240171e-05 0)
(0.00100048265121 2.94516205664e-05 0)
(0.000978918048028 3.26288469065e-05 0)
(0.000955268837791 3.53148997258e-05 0)
(0.000929874548782 3.74977115499e-05 0)
(0.000903081076192 3.91733161178e-05 0)
(0.000875234630503 4.03466225299e-05 0)
(0.000846675267988 4.10323314181e-05 0)
(0.000817730093081 4.12554670867e-05 0)
(0.000788706488559 4.1051120292e-05 0)
(0.000759885893345 4.04632301196e-05 0)
(0.000731518669445 3.95424917618e-05 0)
(0.000703820487253 3.83436809941e-05 0)
(0.000676970458431 3.69227849311e-05 0)
(0.000651111019374 3.53343178561e-05 0)
(0.000626349371784 3.36291072138e-05 0)
(0.0006027601543 3.18527050232e-05 0)
(0.000580388960555 3.00444538329e-05 0)
(0.000559256324588 2.82371421569e-05 0)
(0.000539361844583 2.64571294997e-05 0)
(0.000520688188697 2.47248033529e-05 0)
(0.000503204804718 2.30552379401e-05 0)
(0.000486871226265 2.14589471357e-05 0)
(0.000471639926283 1.99426510448e-05 0)
(0.000457458711643 1.85100025061e-05 0)
(0.000444272681787 1.71622416088e-05 0)
(0.00043202579182 1.58987634897e-05 0)
(0.000420662069035 1.47175960607e-05 0)
(0.000410126534114 1.3615792067e-05 0)
(0.000400365876469 1.25897437269e-05 0)
(0.000391328928899 1.16354303931e-05 0)
(0.000382966981372 1.0748609745e-05 0)
(0.000375233967882 9.9249628159e-06 0)
(0.000368086554687 9.16020188052e-06 0)
(0.00036148415299 8.45014936355e-06 0)
(0.000355388874411 7.79079447978e-06 0)
(0.000349765443514 7.17833354218e-06 0)
(0.000344581078102 6.60919868673e-06 0)
(0.000339805344948 6.08007932638e-06 0)
(0.000335409995978 5.58793983822e-06 0)
(0.00033136878761 5.13003693875e-06 0)
(0.000327657283862 4.70393979138e-06 0)
(0.000324252641934 4.30755624315e-06 0)
(0.000321133377126 3.93916859743e-06 0)
(0.000318279102292 3.59748312275e-06 0)
(0.000315670235473 3.28169797442e-06 0)
(0.000313287668246 2.99159545796e-06 0)
(0.000311112387122 2.72766540177e-06 0)
(0.000309125042074 2.49126765719e-06 0)
(0.00030730546216 2.28484154609e-06 0)
(0.000305632132223 2.11216756422e-06 0)
(0.000304081674955 1.97867570436e-06 0)
(0.000302628444229 1.89176360354e-06 0)
(0.000301244457062 1.86100138301e-06 0)
(0.000299900123176 1.8978672736e-06 0)
(0.000298566643296 2.01401118991e-06 0)
(0.000297221608209 2.21516504388e-06 0)
(0.000295859046572 2.48165366731e-06 0)
(0.00029449698561 2.7111116001e-06 0)
(0.0012219289412 0.000221258783836 0)
(0.00125340169182 0.000382650185123 0)
(0.00125110587978 0.000396053450888 0)
(0.0012134796677 0.000356131074459 0)
(0.00115554726411 0.000304237970453 0)
(0.00108971131739 0.000254877967917 0)
(0.00102344333347 0.000212206602011 0)
(0.00096070172052 0.000176639715521 0)
(0.000903309623203 0.00014738170795 0)
(0.0008518855893 0.000123369515304 0)
(0.000806408404065 0.000103601967071 0)
(0.000766543191406 8.72333332786e-05 0)
(0.000731823158315 7.35803081082e-05 0)
(0.000701747299708 6.21010098274e-05 0)
(0.000675830365695 5.23683135136e-05 0)
(0.000653626284899 4.40453276424e-05 0)
(0.00063473718659 3.68651401123e-05 0)
(0.000618814879841 3.06148589333e-05 0)
(0.000605558609156 2.51233093601e-05 0)
(0.000594711176899 2.02516383407e-05 0)
(0.000586054547411 1.58861569011e-05 0)
(0.000579405502626 1.19328791077e-05 0)
(0.000574611617955 8.31333935846e-06 0)
(0.000571547663902 4.96137278082e-06 0)
(0.00057011245256 1.82062393112e-06 0)
(0.000570226104667 -1.15738946522e-06 0)
(0.000571827690286 -4.01477982491e-06 0)
(0.000574873190032 -6.7884591145e-06 0)
(0.000579333724419 -9.5110500609e-06 0)
(0.000585193994895 -1.22115738464e-05 0)
(0.000592450879924 -1.49159490668e-05 0)
(0.000601112131614 -1.76473236947e-05 0)
(0.000611195117422 -2.0426251634e-05 0)
(0.00062272554954 -2.32707170593e-05 0)
(0.000635736141396 -2.61960036419e-05 0)
(0.000650265126708 -2.92144005173e-05 0)
(0.000666354572005 -3.23347341052e-05 0)
(0.00068404840932 -3.55617137866e-05 0)
(0.000703390112871 -3.88950825443e-05 0)
(0.000724419943813 -4.23285707389e-05 0)
(0.000747171692498 -4.58486656803e-05 0)
(0.000771668861281 -4.94332315919e-05 0)
(0.000797920255888 -5.30500473559e-05 0)
(0.000825914993739 -5.66553713753e-05 0)
(0.000855616996378 -6.01926940565e-05 0)
(0.000886959112485 -6.35918906153e-05 0)
(0.000919837115995 -6.67690313617e-05 0)
(0.000954103934182 -6.96271243107e-05 0)
(0.000989564568655 -7.20580388993e-05 0)
(0.00102597225653 -7.39457704197e-05 0)
(0.00106302645218 -7.51710516725e-05 0)
(0.00110037316724 -7.56171178711e-05 0)
(0.00113760807586 -7.51762329876e-05 0)
(0.00117428258603 -7.3756449985e-05 0)
(0.00120991283506 -7.12880566212e-05 0)
(0.00124399134082 -6.77292496133e-05 0)
(0.00127600087101 -6.30707240632e-05 0)
(0.00130542998435 -5.73389629625e-05 0)
(0.0013317896137 -5.05980052013e-05 0)
(0.00135462995812 -4.29493733211e-05 0)
(0.00137355680394 -3.45297427338e-05 0)
(0.0013882462226 -2.55059342366e-05 0)
(0.00139845645218 -1.60670362455e-05 0)
(0.00140403577791 -6.41400986621e-06 0)
(0.00140492552714 3.25207106934e-06 0)
(0.00140115794358 1.27413019084e-05 0)
(0.00139284955191 2.18837699156e-05 0)
(0.00138019133032 3.05347776322e-05 0)
(0.00136343731451 3.85762563523e-05 0)
(0.00134289311827 4.59151290356e-05 0)
(0.00131890536892 5.2480032542e-05 0)
(0.00129185244299 5.82178414061e-05 0)
(0.00126213637234 6.3091057244e-05 0)
(0.00123017547217 6.7076610366e-05 0)
(0.00119639713114 7.01660962003e-05 0)
(0.00116123029052 7.23669940352e-05 0)
(0.00112509739638 7.37040834961e-05 0)
(0.00108840595536 7.42202009077e-05 0)
(0.00105154014331 7.39756772182e-05 0)
(0.00101485310603 7.30461849542e-05 0)
(0.000978660606353 7.15191455493e-05 0)
(0.000943236525592 6.94891814218e-05 0)
(0.000908810480447 6.70532562209e-05 0)
(0.000875567544045 6.43061263613e-05 0)
(0.000843649829515 6.13365717176e-05 0)
(0.000813159543965 5.8224660851e-05 0)
(0.000784163058614 5.50401005898e-05 0)
(0.000756695552513 5.18415668639e-05 0)
(0.000730765848187 4.86768241143e-05 0)
(0.00070636114219 4.55834108656e-05 0)
(0.000683451422385 4.25896793672e-05 0)
(0.00066199344384 3.97160124318e-05 0)
(0.000641934200471 3.69760830616e-05 0)
(0.000623213878264 3.43780652184e-05 0)
(0.00060576830933 3.19257391882e-05 0)
(0.000589530966793 2.9619463252e-05 0)
(0.000574434551448 2.74570023407e-05 0)
(0.000560412225083 2.54342178116e-05 0)
(0.000547398544621 2.35456294242e-05 0)
(0.000535330147608 2.17848649929e-05 0)
(0.00052414623434 2.01450138312e-05 0)
(0.000513788886078 1.86189003622e-05 0)
(0.000504203252835 1.71992924615e-05 0)
(0.000495337638595 1.58790580503e-05 0)
(0.000487143506638 1.46512811473e-05 0)
(0.000479575423045 1.35093475219e-05 0)
(0.000472590952457 1.2447008069e-05 0)
(0.000466150516601 1.14584273939e-05 0)
(0.000460217223146 1.05382235995e-05 0)
(0.000454756669785 9.68150516905e-06 0)
(0.000449736726243 8.88390987836e-06 0)
(0.00044512729496 8.14165107756e-06 0)
(0.000440900049674 7.45157618058e-06 0)
(0.000437028149953 6.81124297403e-06 0)
(0.000433485929232 6.21901905435e-06 0)
(0.000430248554384 5.67421032829e-06 0)
(0.000427291657019 5.17722337143e-06 0)
(0.000424590941784 4.72976480871e-06 0)
(0.000422121786875 4.33507457961e-06 0)
(0.000419858870167 3.99817712703e-06 0)
(0.000417775885903 3.72610430432e-06 0)
(0.000415845469635 3.52797940717e-06 0)
(0.000414039532435 3.41470822486e-06 0)
(0.00041233032359 3.39770235829e-06 0)
(0.000410692661868 3.48531792218e-06 0)
(0.000409107635132 3.67392128047e-06 0)
(0.000407566442606 3.92665329112e-06 0)
(0.000406065455174 4.12916194026e-06 0)
(0.00121693695766 0.000182392879886 0)
(0.00124910943504 0.000357870844465 0)
(0.00126573344701 0.000406504568699 0)
(0.00125599656264 0.00039304303016 0)
(0.00122567468435 0.000355580273131 0)
(0.00118307704373 0.000311969228509 0)
(0.00113475178314 0.000269708561575 0)
(0.0010850722196 0.000231558908011 0)
(0.0010367240531 0.000198202754841 0)
(0.000991236930705 0.000169459600351 0)
(0.000949393024379 0.000144832949333 0)
(0.000911509570234 0.000123750993719 0)
(0.0008776253085 0.000105666918586 0)
(0.000847620231187 9.0095311602e-05 0)
(0.000821290966887 7.66201866798e-05 0)
(0.000798397332751 6.48911463915e-05 0)
(0.000778690427854 5.46153019764e-05 0)
(0.000761929048383 4.55483611952e-05 0)
(0.00074788879786 3.74863067898e-05 0)
(0.000736366687545 3.02581626327e-05 0)
(0.000727183000821 2.37199287281e-05 0)
(0.000720181539482 1.77495941712e-05 0)
(0.00071522895068 1.22430794969e-05 0)
(0.000712213566287 7.1109538997e-06 0)
(0.000711044016466 2.27578798878e-06 0)
(0.000711647771423 -2.32997523658e-06 0)
(0.000713969692919 -6.76571434071e-06 0)
(0.000717970638665 -1.10839816323e-05 0)
(0.000723626135888 -1.53315689025e-05 0)
(0.000730925113597 -1.95503109712e-05 0)
(0.000739868671809 -2.37776608131e-05 0)
(0.000750468858003 -2.80470531086e-05 0)
(0.000762747412349 -3.23880630864e-05 0)
(0.000776734435799 -3.68263590965e-05 0)
(0.000792466928056 -4.13834406091e-05 0)
(0.000809987135645 -4.60761480584e-05 0)
(0.000829340643859 -5.09159281351e-05 0)
(0.00085057414086 -5.5907838309e-05 0)
(0.00087373277862 -6.1049279468e-05 0)
(0.000898857055169 -6.63284570583e-05 0)
(0.000925979147949 -7.17225919231e-05 0)
(0.000955118641778 -7.71959341395e-05 0)
(0.000986277620553 -8.26976792165e-05 0)
(0.00101943513345 -8.81599459309e-05 0)
(0.00105454110797 -9.34960468057e-05 0)
(0.0010915098665 -9.8599357037e-05 0)
(0.00113021351009 -0.000103343150897 0)
(0.00117047555603 -0.000107581802146 0)
(0.00121206534171 -0.000111153708978 0)
(0.00125469380903 -0.000113886178096 0)
(0.00129801133106 -0.000115602279446 0)
(0.00134160820007 -0.000116129387778 0)
(0.00138501824671 -0.000115308828641 0)
(0.00142772581386 -0.000113005839828 0)
(0.00146917601663 -0.000109119026098 0)
(0.00150878795286 -0.000103588630814 0)
(0.00154597034618 -9.64031784179e-05 0)
(0.00158013900885 -8.76042024967e-05 0)
(0.00161073545269 -7.72887652829e-05 0)
(0.00163724588215 -6.56093248382e-05 0)
(0.00165921964126 -5.27703477807e-05 0)
(0.0016762859676 -3.90210418873e-05 0)
(0.00168816768821 -2.46438641214e-05 0)
(0.00169469041658 -9.93923986075e-06 0)
(0.00169578610242 4.79184372627e-06 0)
(0.00169149056961 1.92646053553e-05 0)
(0.00168193575542 3.32236149987e-05 0)
(0.00166733827297 4.64505634423e-05 0)
(0.00164798629557 5.87663763813e-05 0)
(0.00162422654149 7.00288596042e-05 0)
(0.0015964524872 8.01279957432e-05 0)
(0.00156509416771 8.8981005918e-05 0)
(0.00153060932364 9.65286842176e-05 0)
(0.00149347531757 0.000102733763096 0)
(0.0014541811343 0.000107581339935 0)
(0.00141321889096 0.000111080706898 0)
(0.00137107460118 0.000113267429203 0)
(0.00132821836912 0.000114204406228 0)
(0.0012850945804 0.00011398095496 0)
(0.00124211287997 0.000112709532375 0)
(0.00119964072903 0.000110520341972 0)
(0.00115799813988 0.00010755455428 0)
(0.00111745487806 0.000103957096043 0)
(0.00107823009308 9.98699200537e-05 0)
(0.00104049407209 9.54264320115e-05 0)
(0.00100437164743 9.07474353799e-05 0)
(0.00096994673138 8.59386579699e-05 0)
(0.000937267477972 8.10897050907e-05 0)
(0.000906351649734 7.62741598024e-05 0)
(0.000877191866947 7.1550510213e-05 0)
(0.000849760516741 6.69636008279e-05 0)
(0.000824014186592 6.25463546615e-05 0)
(0.000799897556075 5.83215735825e-05 0)
(0.000777346731644 5.43036837543e-05 0)
(0.000756292043819 5.05003430949e-05 0)
(0.000736660347487 4.691386689e-05 0)
(0.000718376877532 4.35424554224e-05 0)
(0.000701366716295 4.03812262684e-05 0)
(0.000685555929012 3.74230649483e-05 0)
(0.000670872420065 3.46593137695e-05 0)
(0.000657246557843 3.20803208056e-05 0)
(0.000644611610341 2.96758711635e-05 0)
(0.000632904027694 2.74355211521e-05 0)
(0.000622063602192 2.53488541445e-05 0)
(0.000612033531069 2.34056744804e-05 0)
(0.000602760402625 2.15961537432e-05 0)
(0.000594194122087 1.99109415439e-05 0)
(0.000586287789949 1.83412514252e-05 0)
(0.000578997542423 1.68789309016e-05 0)
(0.00057228236098 1.55165237715e-05 0)
(0.000566103855708 1.42473318589e-05 0)
(0.000560426025457 1.30654829951e-05 0)
(0.00055521499642 1.19660114875e-05 0)
(0.000550438740037 1.09449571626e-05 0)
(0.000546066771155 9.99948831562e-06 0)
(0.000542069828471 9.12805288117e-06 0)
(0.00053841954205 8.33055932069e-06 0)
(0.000535088097881 7.60858343496e-06 0)
(0.000532047918289 6.96558612285e-06 0)
(0.000529271391127 6.40710570057e-06 0)
(0.000526730701911 5.94084614432e-06 0)
(0.000524397852856 5.57650064749e-06 0)
(0.000522244988258 5.32498751171e-06 0)
(0.000520245168607 5.19645137342e-06 0)
(0.00051837366817 5.19573193976e-06 0)
(0.000516609431004 5.31277280279e-06 0)
(0.000514934621074 5.50380612339e-06 0)
(0.000513326345039 5.66127419496e-06 0)
(0.00121285582066 0.000152600095713 0)
(0.00124177276608 0.000326574187478 0)
(0.00126592139753 0.000397028557432 0)
(0.00127236439768 0.000405812900885 0)
(0.00126135565892 0.000384140994151 0)
(0.00123753157846 0.000349830202697 0)
(0.00120572443876 0.00031197996153 0)
(0.00116976290304 0.000274928581094 0)
(0.00113237918484 0.000240564940226 0)
(0.00109541153739 0.000209552158627 0)
(0.001060037949 0.000181957859673 0)
(0.00102697139123 0.000157576069309 0)
(0.00099660704458 0.000136090425532 0)
(0.000969128378506 0.000117155522389 0)
(0.00094458172481 0.000100435868469 0)
(0.00092292786727 8.56229311471e-05 0)
(0.000904077280527 7.24409840801e-05 0)
(0.000887913909835 6.06474048873e-05 0)
(0.000874311000846 5.0030398729e-05 0)
(0.000863141457046 4.04057014916e-05 0)
(0.000854284456407 3.161305456e-05 0)
(0.000847629528672 2.35128354772e-05 0)
(0.000843078922028 1.59830125285e-05 0)
(0.000840548827633 8.91647948258e-06 0)
(0.000839969849063 2.21877166546e-06 0)
(0.000841286977694 -4.19386046846e-06 0)
(0.000844459242753 -1.03960323405e-05 0)
(0.000849459153176 -1.64545350451e-05 0)
(0.000856272002736 -2.24293759352e-05 0)
(0.000864895068162 -2.83745589901e-05 0)
(0.000875336713627 -3.43386264674e-05 0)
(0.000887615397707 -4.03649656102e-05 0)
(0.00090175856404 -4.64918768272e-05 0)
(0.000917801384797 -5.27523925791e-05 0)
(0.000935785315384 -5.91738302008e-05 0)
(0.000955756409304 -6.57770571576e-05 0)
(0.000977763333451 -7.25754452522e-05 0)
(0.00100185501689 -7.95734918684e-05 0)
(0.00102807786092 -8.67650940066e-05 0)
(0.00105647243635 -9.41314765596e-05 0)
(0.0010870695974 -0.000101638803761 0)
(0.00111988595331 -0.000109235544678 0)
(0.00115491866199 -0.000116849723623 0)
(0.00119213955024 -0.000124386264733 0)
(0.00123148862595 -0.000131724734641 0)
(0.00127286713524 -0.000138717887621 0)
(0.00131613043188 -0.000145191505208 0)
(0.00136108106471 -0.000150946065297 0)
(0.00140746263582 -0.000155760735407 0)
(0.00145495511179 -0.000159400022027 0)
(0.00150317233963 -0.000161623107034 0)
(0.00155166248546 -0.000162195491805 0)
(0.00159991194552 -0.000160902143957 0)
(0.00164735298503 -0.000157561040774 0)
(0.00169337500492 -0.000152035955769 0)
(0.00173733901966 -0.000144247560243 0)
(0.00177859473802 -0.000134182271181 0)
(0.00181649957899 -0.000121898528879 0)
(0.00185043894291 -0.000107530170111 0)
(0.00187984698592 -9.12863269512e-05 0)
(0.00190422696414 -7.34470314935e-05 0)
(0.00192316993558 -5.43536210696e-05 0)
(0.00193637027242 -3.43933259931e-05 0)
(0.0019436362096 -1.39784465924e-05 0)
(0.00194489389898 6.47765267775e-06 0)
(0.00194018440375 2.65837830395e-05 0)
(0.00192965448611 4.59891100935e-05 0)
(0.00191354324159 6.43937200786e-05 0)
(0.00189216709472 8.15512544399e-05 0)
(0.00186590531548 9.72654131237e-05 0)
(0.00183518731493 0.000111383385578 0)
(0.00180048198335 0.000123789148454 0)
(0.00176228863567 0.000134398609939 0)
(0.00172112879118 0.000143157561921 0)
(0.00167753791594 0.000150042473036 0)
(0.0016320563947 0.000155063212937 0)
(0.00158521940371 0.000158266081085 0)
(0.00153754591245 0.000159735358597 0)
(0.00148952753753 0.000159592051899 0)
(0.00144161823984 0.000157989324696 0)
(0.0013942258382 0.000155104999398 0)
(0.0013477060516 0.000151132176102 0)
(0.0013023593881 0.00014626930952 0)
(0.00125843079662 0.000140710999511 0)
(0.00121611168835 0.000134640404659 0)
(0.00117554376018 0.000128223744554 0)
(0.0011368240088 0.000121606951054 0)
(0.00110001037521 0.000114914239346 0)
(0.00106512756229 0.000108248212184 0)
(0.00103217268804 0.000101691065105 0)
(0.00100112054942 9.53064893809e-05 0)
(0.000971928365714 8.91419385966e-05 0)
(0.000944539942011 8.32310061699e-05 0)
(0.000918889244091 7.75957391667e-05 0)
(0.000894903409368 7.22487789341e-05 0)