/*--------------------------------*- C++ -*----------------------------------*\
  =========                 |
  \\      /  F ield         | OpenFOAM: The Open Source CFD Toolbox
   \\    /   O peration     | Website:  https://openfoam.org
    \\  /    A nd           | Version:  7
     \\/     M anipulation  |
\*---------------------------------------------------------------------------*/
FoamFile
{
    version     2.0;
    format      ascii;
    class       volScalarField;
    location    "1500";
    object      Ci;
}
// * * * * * * * * * * * * * * * * * * * * * * * * * * * * * * * * * * * * * //

dimensions      [0 -3 0 0 1 0 0];

internalField   nonuniform List<scalar> 
8192
(
10.0000000033
9.99999998897
9.99999997627
9.99999996434
9.99999994568
9.99999992364
9.99999991704
9.99999992345
9.99999993939
9.99999996208
9.99999998933
10.00000002
10.0000000531
10.0000000885
10.0000001258
10.0000001653
10.0000002068
10.0000002509
10.0000002977
10.0000003484
10.0000004047
10.0000004681
10.000000537
10.0000006097
10.0000006832
10.0000007557
10.000000824
10.0000008863
10.0000009396
10.0000009817
10.0000010094
10.0000010205
10.0000010104
10.0000009758
10.0000009126
10.0000008182
10.0000006898
10.0000005262
10.0000003263
10.0000000906
9.99999981964
9.9999995155
9.9999991804
9.99999881779
9.99999843132
9.99999802538
9.99999760474
9.99999717436
9.99999673984
9.99999630647
9.99999588066
9.99999546794
9.99999507559
9.99999470938
9.99999437726
9.99999408492
9.9999938407
9.99999365
9.99999352164
9.99999346129
9.9999934788
9.99999358024
9.99999377522
9.99999406725
9.99999446119
9.99999495344
9.99999554097
9.99999621323
9.99999696241
9.999997776
9.99999864578
9.99999955986
10.00000051
10.0000014843
10.0000024737
10.0000034659
10.0000044515
10.0000054189
10.0000063597
10.0000072641
10.0000081255
10.000008937
10.0000096944
10.0000103939
10.0000110339
10.0000116136
10.000012134
10.0000125967
10.0000130048
10.0000133614
10.0000136708
10.000013937
10.0000141645
10.0000143581
10.0000145234
10.0000146702
10.0000148015
10.0000149182
10.0000150202
10.0000151077
10.0000151807
10.0000152395
10.0000152846
10.0000153164
10.0000153354
10.000015342
10.0000153369
10.0000153202
10.0000152927
10.0000152544
10.000015206
10.0000151474
10.0000150793
10.0000150013
10.0000149141
10.000014817
10.0000147103
10.000014593
10.0000144647
10.0000143238
10.0000141693
10.0000139987
10.0000138112
10.0000136051
10.0000133829
10.000013152
10.0000129342
10.0000127792
9.9999999896
9.99999998357
9.99999998228
9.99999998581
9.99999999524
10.0000000084
10.0000000256
10.0000000461
10.0000000689
10.0000000935
10.0000001193
10.0000001462
10.000000174
10.0000002029
10.000000233
10.0000002647
10.0000002984
10.0000003347
10.0000003741
10.0000004176
10.0000004697
10.000000533
10.000000603
10.0000006772
10.0000007527
10.0000008275
10.0000008988
10.0000009647
10.0000010226
10.0000010703
10.0000011053
10.0000011249
10.000001124
10.0000010985
10.0000010445
10.0000009592
10.0000008403
10.0000006867
10.0000004979
10.0000002742
10.0000000171
9.99999972811
9.99999941017
9.99999906599
9.99999869969
9.99999831463
9.99999791592
9.99999750727
9.99999709456
9.99999668164
9.99999627522
9.99999587934
9.99999550159
9.99999514626
9.99999482174
9.99999453241
9.99999428728
9.99999409078
9.9999939526
9.99999387769
9.99999387663
9.99999395459
9.99999412148
9.99999437983
9.99999473486
9.99999518272
9.99999572156
9.99999634143
9.99999703607
9.99999779345
9.99999860653
9.99999946346
10.000000357
10.0000012753
10.0000022103
10.00000315
10.0000040864
10.0000050081
10.0000059076
10.0000067754
10.0000076056
10.0000083908
10.0000091274
10.0000098108
10.0000104395
10.0000110117
10.0000115285
10.0000119904
10.0000124002
10.0000127605
10.0000130749
10.0000133472
10.0000135817
10.0000137822
10.0000139534
10.0000141154
10.0000142643
10.0000143978
10.0000145154
10.0000146168
10.0000147025
10.0000147731
10.0000148292
10.0000148714
10.0000149005
10.000014917
10.0000149218
10.000014915
10.0000148975
10.0000148695
10.0000148316
10.0000147839
10.0000147269
10.0000146605
10.0000145852
10.0000145006
10.0000144069
10.0000143031
10.0000141891
10.0000140631
10.0000139243
10.0000137703
10.0000135998
10.0000134107
10.0000132039
10.0000129849
10.00001277
10.0000126005
9.99999998648
9.9999999882
9.99999999665
10.0000000074
10.0000000213
10.0000000401
10.0000000639
10.000000092
10.000000124
10.0000001595
10.0000001983
10.0000002402
10.0000002849
10.0000003323
10.0000003823
10.0000004348
10.0000004897
10.000000547
10.0000006065
10.0000006681
10.0000007322
10.000000799
10.0000008678
10.0000009374
10.0000010064
10.0000010733
10.0000011365
10.0000011942
10.0000012446
10.0000012859
10.0000013161
10.0000013332
10.0000013351
10.0000013196
10.0000012849
10.000001229
10.0000011512
10.0000010501
10.000000926
10.0000007782
10.0000006079
10.0000004153
10.0000002027
9.99999997065
9.99999972253
9.99999945915
9.99999918467
9.99999889987
9.99999860963
9.99999831448
9.99999802002
9.99999772665
9.9999974408
9.99999716284
9.9999969002
9.99999665332
9.99999643063
9.99999623291
9.9999960698
9.99999594293
9.99999586339
9.99999583371
9.99999586541
9.99999595998
9.99999612638
9.99999636218
9.99999667141
9.99999704737
9.99999749049
9.99999799234
9.99999855209
9.99999916098
9.99999981703
10.0000005107
10.0000012384
10.0000019897
10.0000027594
10.0000035368
10.0000043161
10.0000050872
10.0000058443
10.0000065784
10.000007285
10.0000079569
10.0000085911
10.000009183
10.0000097315
10.0000102342
10.0000106923
10.0000111053
10.0000114757
10.0000118048
10.0000120959
10.0000123511
10.0000125739
10.0000127691
10.0000129403
10.0000130891
10.0000132178
10.0000133277
10.000013421
10.0000134986
10.0000135626
10.0000136136
10.0000136532
10.0000136818
10.0000137008
10.0000137103
10.0000137115
10.0000137043
10.0000136897
10.0000136674
10.0000136383
10.0000136018
10.0000135587
10.0000135082
10.0000134509
10.0000133855
10.0000133122
10.0000132291
10.0000131358
10.0000130297
10.0000129098
10.0000127736
10.0000126205
10.0000124538
10.0000122812
10.0000121455
9.9999999834
9.99999999156
10.0000000052
10.0000000214
10.0000000403
10.0000000621
10.000000087
10.0000001162
10.0000001493
10.0000001862
10.0000002269
10.0000002715
10.0000003198
10.0000003719
10.0000004276
10.0000004867
10.000000549
10.0000006143
10.0000006823
10.0000007526
10.000000825
10.0000008989
10.0000009741
10.0000010497
10.000001125
10.000001199
10.0000012709
10.0000013394
10.0000014037
10.0000014621
10.0000015142
10.0000015577
10.0000015924
10.000001616
10.0000016286
10.0000016276
10.0000016136
10.0000015844
10.0000015407
10.0000014811
10.0000014064
10.0000013159
10.0000012108
10.0000010909
10.0000009577
10.0000008114
10.0000006539
10.0000004855
10.0000003083
10.0000001224
9.99999993061
9.99999973301
9.99999953278
9.99999933054
9.99999913014
9.99999893283
9.99999874328
9.9999985635
9.99999839918
9.99999825343
9.99999813324
9.99999804288
9.99999798995
9.99999797834
9.99999801386
9.99999809735
9.99999823085
9.99999841179
9.99999863994
9.99999891189
9.9999992275
9.99999958359
9.99999997977
10.0000004122
10.0000008793
10.0000013762
10.0000019
10.0000024449
10.000003007
10.0000035797
10.0000041586
10.0000047367
10.0000053095
10.0000058706
10.0000064157
10.0000069397
10.0000074396
10.0000079116
10.0000083544
10.0000087658
10.0000091459
10.0000094941
10.0000098115
10.0000100986
10.0000103572
10.0000105889
10.0000107958
10.0000109794
10.000011142
10.0000112848
10.00001141
10.0000115188
10.0000116132
10.0000116943
10.0000117638
10.0000118226
10.0000118722
10.0000119131
10.0000119467
10.0000119732
10.0000119939
10.0000120087
10.0000120185
10.0000120232
10.0000120235
10.0000120188
10.0000120095
10.0000119948
10.0000119746
10.0000119474
10.0000119125
10.0000118678
10.000011812
10.0000117432
10.0000116609
10.0000115669
10.0000114628
10.0000113996
9.99999998111
9.9999999962
10.0000000184
10.0000000402
10.0000000629
10.0000000872
10.0000001136
10.0000001421
10.0000001747
10.0000002108
10.0000002506
10.0000002941
10.0000003415
10.0000003926
10.0000004476
10.0000005062
10.0000005684
10.0000006339
10.0000007025
10.000000774
10.0000008482
10.0000009245
10.0000010028
10.0000010824
10.0000011632
10.0000012439
10.000001325
10.0000014044
10.0000014832
10.0000015583
10.0000016318
10.0000016991
10.0000017638
10.0000018198
10.000001872
10.0000019133
10.0000019489
10.0000019722
10.0000019878
10.0000019905
10.0000019832
10.0000019632
10.0000019319
10.0000018879
10.0000018322
10.0000017642
10.0000016847
10.0000015933
10.0000014912
10.0000013777
10.0000012545
10.0000011213
10.0000009802
10.0000008314
10.0000006781
10.0000005213
10.0000003648
10.0000002106
10.0000000635
9.99999992652
9.99999980557
9.99999970456
9.99999962994
9.99999958509
9.99999957457
9.99999959863
9.99999965804
9.99999974978
9.99999987269
10.0000000236
10.000000202
10.0000004059
10.0000006354
10.0000008886
10.0000011652
10.000001463
10.0000017814
10.0000021179
10.0000024711
10.0000028382
10.0000032171
10.0000036041
10.0000039967
10.0000043909
10.0000047836
10.000005171
10.0000055503
10.0000059183
10.0000062728
10.0000066114
10.000006933
10.0000072359
10.00000752
10.0000077846
10.0000080302
10.0000082567
10.0000084652
10.0000086563
10.0000088312
10.0000089906
10.000009136
10.0000092684
10.0000093891
10.0000094991
10.0000095997
10.0000096918
10.0000097768
10.0000098551
10.000009928
10.0000099958
10.0000100597
10.0000101197
10.0000101766
10.0000102304
10.0000102816
10.0000103297
10.0000103751
10.0000104169
10.000010455
10.0000104881
10.0000105153
10.0000105346
10.0000105449
10.0000105436
10.000010531
10.0000105075
10.0000104771
10.0000104695
9.99999997939
9.99999999852
10.0000000246
10.0000000518
10.0000000798
10.0000001085
10.0000001382
10.0000001692
10.000000202
10.0000002381
10.0000002775
10.0000003201
10.0000003662
10.0000004157
10.0000004688
10.0000005254
10.0000005856
10.000000649
10.0000007159
10.0000007857
10.0000008587
10.0000009341
10.0000010125
10.0000010924
10.0000011753
10.0000012582
10.0000013446
10.0000014286
10.000001517
10.0000015997
10.0000016883
10.0000017667
10.0000018529
10.0000019241
10.0000020045
10.0000020656
10.0000021354
10.0000021844
10.0000022384
10.0000022731
10.0000023067
10.0000023243
10.0000023348
10.000002332
10.0000023183
10.0000022921
10.0000022536
10.0000022024
10.0000021385
10.0000020616
10.0000019722
10.0000018705
10.0000017575
10.0000016342
10.0000015028
10.0000013652
10.0000012246
10.0000010841
10.0000009477
10.0000008195
10.0000007046
10.000000608
10.000000535
10.0000004901
10.0000004763
10.0000004939
10.0000005414
10.0000006152
10.0000007115
10.0000008267
10.0000009585
10.0000011046
10.0000012639
10.0000014346
10.0000016159
10.0000018061
10.000002005
10.0000022113
10.0000024251
10.0000026454
10.0000028722
10.0000031041
10.0000033408
10.0000035805
10.0000038225
10.0000040648
10.0000043062
10.0000045451
10.0000047802
10.00000501
10.0000052336
10.0000054499
10.0000056583
10.000005858
10.0000060489
10.0000062307
10.0000064036
10.0000065676
10.0000067233
10.0000068708
10.0000070112
10.0000071446
10.0000072721
10.0000073941
10.0000075117
10.0000076252
10.0000077357
10.0000078434
10.0000079492
10.0000080533
10.0000081563
10.0000082584
10.0000083599
10.0000084606
10.0000085606
10.0000086596
10.0000087574
10.0000088532
10.0000089464
10.0000090358
10.0000091204
10.0000091981
10.0000092678
10.0000093264
10.0000093756
10.0000094098
10.0000094459
10.0000094746
9.99999997957
10.0000000025
10.0000000347
10.0000000665
10.0000000979
10.0000001294
10.0000001613
10.000000194
10.0000002281
10.0000002638
10.0000003027
10.0000003446
10.0000003896
10.0000004376
10.0000004888
10.0000005432
10.0000006009
10.0000006617
10.0000007259
10.0000007928
10.0000008634
10.0000009358
10.0000010127
10.0000010898
10.000001173
10.0000012533
10.0000013431
10.0000014241
10.0000015208
10.0000015992
10.0000017031
10.0000017749
10.0000018851
10.0000019467
10.00000206
10.0000021098
10.000002219
10.0000022585
10.0000023533
10.0000023852
10.0000024553
10.0000024804
10.0000025201
10.0000025339
10.0000025434
10.0000025382
10.00000252
10.0000024894
10.0000024442
10.0000023855
10.0000023125
10.0000022256
10.0000021253
10.0000020128
10.0000018899
10.0000017588
10.0000016227
10.0000014852
10.0000013504
10.000001223
10.0000011084
10.0000010122
10.0000009401
10.0000008969
10.0000008854
10.0000009059
10.000000956
10.0000010311
10.0000011263
10.000001237
10.0000013601
10.0000014927
10.0000016324
10.0000017768
10.000001924
10.0000020721
10.00000222
10.0000023666
10.0000025116
10.0000026547
10.000002796
10.0000029356
10.0000030735
10.0000032098
10.0000033447
10.000003478
10.0000036099
10.0000037403
10.0000038692
10.0000039966
10.0000041226
10.000004247
10.0000043699
10.0000044912
10.0000046111
10.0000047296
10.0000048468
10.0000049629
10.0000050782
10.000005193
10.0000053075
10.0000054221
10.0000055372
10.0000056533
10.0000057707
10.0000058896
10.0000060106
10.0000061338
10.0000062594
10.0000063875
10.0000065181
10.0000066512
10.0000067865
10.0000069236
10.0000070622
10.0000072016
10.0000073411
10.0000074798
10.0000076166
10.0000077502
10.0000078791
10.0000080014
10.0000081157
10.0000082181
10.0000083129
10.0000083863
10.0000084724
10.0000085181
9.99999997963
10.0000000039
10.0000000375
10.000000073
10.0000001089
10.0000001445
10.0000001798
10.0000002152
10.0000002512
10.0000002883
10.0000003273
10.0000003691
10.0000004135
10.0000004605
10.0000005105
10.0000005631
10.000000619
10.0000006772
10.0000007393
10.000000803
10.0000008718
10.0000009403
10.0000010167
10.0000010885
10.0000011741
10.0000012465
10.0000013442
10.000001412
10.0000015265
10.000001582
10.0000017193
10.0000017527
10.0000019182
10.0000019206
10.000002115
10.0000020843
10.0000022967
10.000002243
10.0000024487
10.0000023939
10.0000025605
10.000002526
10.0000026306
10.0000026209
10.0000026629
10.0000026611
10.000002657
10.0000026395
10.0000026037
10.000002557
10.0000024925
10.0000024137
10.0000023192
10.0000022103
10.0000020886
10.0000019564
10.0000018169
10.0000016743
10.0000015331
10.0000013989
10.0000012774
10.0000011757
10.0000010998
10.0000010558
10.0000010465
10.0000010723
10.0000011294
10.0000012122
10.0000013141
10.0000014299
10.0000015558
10.0000016885
10.0000018254
10.0000019632
10.0000020999
10.0000022328
10.0000023601
10.0000024805
10.0000025938
10.0000026993
10.0000027976
10.0000028885
10.000002973
10.0000030509
10.0000031229
10.0000031891
10.0000032508
10.0000033085
10.0000033634
10.0000034163
10.0000034683
10.0000035202
10.000003573
10.0000036273
10.000003684
10.0000037435
10.0000038067
10.0000038738
10.0000039456
10.0000040222
10.0000041044
10.0000041922
10.0000042862
10.0000043864
10.0000044932
10.0000046066
10.0000047268
10.0000048536
10.000004987
10.0000051266
10.0000052721
10.000005423
10.0000055786
10.0000057383
10.0000059012
10.0000060662
10.0000062321
10.0000063979
10.0000065618
10.0000067226
10.0000068781
10.0000070265
10.0000071662
10.0000072926
10.0000074117
10.0000075043
10.000007616
10.0000076645
9.99999998021
10.0000000081
10.0000000457
10.0000000843
10.0000001226
10.0000001603
10.0000001976
10.0000002347
10.0000002722
10.0000003104
10.0000003499
10.0000003916
10.0000004358
10.0000004821
10.0000005312
10.0000005823
10.0000006369
10.0000006928
10.0000007537
10.0000008138
10.0000008823
10.0000009453
10.0000010239
10.0000010866
10.0000011804
10.0000012359
10.0000013539
10.0000013896
10.0000015469
10.0000015423
10.0000017614
10.0000016875
10.0000019956
10.0000018216
10.00000224
10.0000019484
10.0000024722
10.0000020821
10.0000026595
10.00000224
10.0000027727
10.0000024238
10.0000028083
10.0000026025
10.0000027957
10.0000027241
10.0000027684
10.0000027551
10.0000027264
10.0000026996
10.0000026401
10.0000025742
10.0000024862
10.0000023831
10.0000022638
10.0000021315
10.0000019887
10.0000018401
10.0000016907
10.0000015469
10.0000014152
10.0000013036
10.0000012193
10.000001169
10.0000011561
10.0000011804
10.0000012374
10.0000013206
10.0000014225
10.0000015376
10.0000016613
10.0000017908
10.0000019228
10.0000020539
10.0000021812
10.0000023024
10.0000024158
10.0000025204
10.0000026157
10.0000027013
10.0000027774
10.0000028439
10.0000029013
10.0000029497
10.00000299
10.0000030224
10.0000030488
10.000003069
10.0000030838
10.0000030948
10.0000031033
10.000003111
10.0000031192
10.0000031295
10.000003143
10.0000031611
10.0000031848
10.0000032151
10.0000032527
10.0000032986
10.0000033532
10.0000034172
10.0000034908
10.0000035744
10.0000036681
10.000003772
10.0000038858
10.0000040095
10.0000041425
10.0000042844
10.0000044344
10.0000045919
10.0000047555
10.0000049246
10.0000050974
10.0000052731
10.0000054496
10.0000056261
10.0000057997
10.0000059701
10.0000061334
10.0000062896
10.0000064344
10.0000065664
10.0000066877
10.0000067828
10.0000068937
10.0000069375
9.99999998031
10.0000000096
10.0000000476
10.0000000889
10.0000001307
10.0000001719
10.0000002122
10.0000002518
10.0000002913
10.0000003311
10.0000003719
10.000000414
10.0000004585
10.0000005046
10.0000005536
10.0000006035
10.0000006579
10.0000007114
10.0000007726
10.0000008286
10.0000008994
10.0000009546
10.0000010407
10.0000010882
10.0000012006
10.0000012254
10.0000013853
10.0000013587
10.0000016035
10.0000014756
10.0000018663
10.0000015604
10.0000021827
10.0000016005
10.0000025492
10.000001601
10.0000029332
10.0000016011
10.0000032612
10.0000016755
10.000003436
10.0000018951
10.0000033993
10.0000022524
10.000003203
10.0000026224
10.000002992
10.0000028463
10.0000028684
10.000002871
10.0000027925
10.0000027599
10.0000026659
10.0000025707
10.0000024498
10.0000023133
10.0000021622
10.0000020032
10.0000018402
10.0000016815
10.0000015343
10.0000014093
10.0000013151
10.0000012602
10.0000012472
10.0000012757
10.0000013388
10.0000014288
10.0000015368
10.000001656
10.0000017822
10.0000019114
10.0000020396
10.0000021634
10.0000022799
10.0000023868
10.0000024833
10.0000025688
10.0000026438
10.0000027085
10.0000027636
10.000002809
10.0000028454
10.0000028727
10.0000028919
10.0000029031
10.0000029078
10.0000029067
10.0000029009
10.000002892
10.0000028801
10.0000028665
10.000002853
10.0000028412
10.0000028326
10.0000028289
10.0000028313
10.0000028412
10.0000028597
10.0000028877
10.000002926
10.0000029753
10.000003036
10.0000031086
10.000003193
10.0000032893
10.0000033972
10.0000035164
10.0000036462
10.0000037859
10.0000039347
10.0000040913
10.0000042546
10.0000044232
10.0000045954
10.0000047701
10.0000049446
10.0000051186
10.0000052879
10.0000054537
10.0000056095
10.000005759
10.0000058926
10.0000060162
10.0000061216
10.000006208
10.000006296
10.000006333
9.99999998052
10.0000000134
10.0000000549
10.0000000987
10.0000001425
10.0000001855
10.0000002275
10.0000002687
10.0000003097
10.0000003508
10.0000003927
10.0000004353
10.0000004805
10.0000005264
10.0000005758
10.0000006246
10.0000006796
10.0000007306
10.0000007935
10.0000008442
10.00000092
10.0000009648
10.0000010635
10.0000010894
10.0000012311
10.0000012106
10.000001435
10.0000013135
10.0000016952
10.0000013718
10.0000020415
10.0000013469
10.0000025116
10.0000011951
10.000003135
10.0000008937
10.0000038953
10.0000004904
10.0000046756
10.0000001527
10.0000052311
10.0000001509
10.0000052765
10.000000693
10.0000047197
10.0000016684
10.0000038589
10.0000026024
10.0000031982
10.0000030547
10.0000029438
10.0000030346
10.0000028585
10.0000028201
10.0000026832
10.0000025476
10.0000023877
10.0000022171
10.0000020403
10.0000018623
10.0000016949
10.0000015544
10.0000014511
10.0000013869
10.0000013592
10.0000013675
10.0000014114
10.0000014898
10.0000015962
10.000001723
10.0000018604
10.0000019997
10.0000021338
10.0000022576
10.0000023677
10.0000024627
10.000002543
10.0000026095
10.0000026641
10.0000027082
10.000002743
10.0000027695
10.0000027881
10.0000027992
10.0000028032
10.0000028007
10.0000027924
10.0000027793
10.0000027623
10.000002743
10.0000027222
10.0000027018
10.0000026815
10.0000026629
10.0000026475
10.0000026369
10.0000026327
10.0000026361
10.0000026484
10.0000026707
10.0000027037
10.0000027482
10.0000028045
10.000002873
10.0000029538
10.0000030468
10.0000031516
10.0000032677
10.0000033943
10.0000035307
10.0000036755
10.0000038278
10.0000039857
10.0000041483
10.000004313
10.0000044792
10.0000046434
10.0000048062
10.0000049618
10.0000051137
10.0000052519
10.0000053854
10.000005497
10.0000056039
10.000005682
10.0000057538
10.0000058054
10.0000058355
9.99999998057
10.0000000145
10.0000000568
10.0000001026
10.0000001494
10.0000001953
10.0000002401
10.0000002837
10.0000003268
10.0000003696
10.000000413
10.0000004566
10.0000005029
10.000000549
10.0000005994
10.0000006473
10.0000007036
10.0000007522
10.0000008178
10.0000008634
10.0000009454
10.0000009795
10.0000010924
10.0000010961
10.0000012694
10.0000012017
10.0000014955
10.0000012726
10.0000018046
10.0000012633
10.0000022549
10.0000010973
10.0000029359
10.0000006645
10.000003961
9.99999984605
10.0000054172
9.99999859716
10.0000072442
9.9999971034
10.0000090625
9.99999593304
10.0000101068
9.99999593407
10.0000095737
9.99999762272
10.0000074163
10.0000003947
10.000004818
10.0000026769
10.0000032552
10.000003459
10.000002916
10.0000032241
10.0000028901
10.0000028156
10.0000026275
10.0000024477
10.0000022342
10.0000020139
10.0000018325
10.0000017119
10.0000015961
10.0000014061
10.0000011247
10.0000008256
10.0000006194
10.0000005831
10.0000007271
10.0000010037
10.0000013426
10.0000016814
10.0000019803
10.0000022218
10.0000024048
10.0000025365
10.0000026275
10.0000026874
10.0000027253
10.0000027474
10.0000027583
10.0000027605
10.0000027556
10.0000027443
10.0000027274
10.0000027057
10.0000026805
10.0000026529
10.0000026246
10.0000025968
10.0000025708
10.0000025478
10.0000025287
10.0000025137
10.0000025031
10.0000024977
10.0000024987
10.0000025072
10.0000025243
10.0000025508
10.0000025877
10.0000026355
10.0000026946
10.0000027654
10.0000028479
10.0000029418
10.0000030468
10.0000031622
10.0000032872
10.0000034208
10.0000035615
10.0000037083
10.0000038592
10.0000040133
10.0000041675
10.0000043218
10.0000044718
10.0000046192
10.0000047566
10.0000048902
10.000005006
10.0000051191
10.000005204
10.0000052906
10.0000053366
10.0000053916
10.0000054018
10.0000054254
9.99999998035
10.0000000176
10.0000000637
10.0000001113
10.0000001596
10.0000002071
10.0000002535
10.0000002987
10.0000003435
10.0000003876
10.0000004325
10.0000004771
10.0000005246
10.000000571
10.0000006224
10.0000006699
10.0000007275
10.0000007745
10.0000008422
10.0000008845
10.0000009706
10.0000009985
10.0000011194
10.0000011113
10.0000013012
10.0000012098
10.0000015391
10.0000012645
10.0000018774
10.000001215
10.0000023995
10.0000009467
10.0000032543
10.0000002627
10.0000046816
9.99999887022
10.0000069994
9.99999644032
10.0000104706
9.99999284422
10.0000149424
9.99998863206
10.000019318
9.99998548287
10.0000213795
9.99998583718
10.0000189428
9.99999089413
10.0000124034
9.99999827446
10.0000057465
10.0000033192
10.0000027354
10.0000042585
10.0000026905
10.0000033551
10.0000029169
10.0000027505
10.0000023838
10.0000021962
10.0000022974
10.0000022242
10.0000010774
9.99999833373
9.99999444137
9.99999061112
9.99998807456
9.99998746278
9.99998866074
9.99999104305
9.99999385603
9.99999650181
9.99999865364
10.0000002265
10.0000012848
10.0000019507
10.0000023458
10.0000025666
10.0000026806
10.0000027328
10.0000027522
10.000002757
10.0000027574
10.0000027579
10.0000027584
10.0000027565
10.0000027494
10.0000027348
10.0000027121
10.0000026821
10.0000026468
10.0000026092
10.0000025724
10.0000025389
10.0000025115
10.0000024912
10.0000024795
10.0000024781
10.000002488
10.00000251
10.0000025445
10.0000025919
10.0000026519
10.0000027246
10.0000028094
10.0000029056
10.0000030125
10.0000031291
10.0000032541
10.0000033864
10.0000035243
10.0000036664
10.0000038106
10.000003956
10.0000040993
10.0000042409
10.0000043755
10.0000045063
10.0000046241
10.0000047378
10.00000483
10.0000049214
10.0000049787
10.0000050439
10.0000050576
10.0000050951
10.000005065
10.0000050811
9.99999998043
10.0000000185
10.0000000658
10.0000001149
10.0000001655
10.0000002154
10.0000002643
10.0000003116
10.0000003585
10.0000004044
10.000000451
10.0000004971
10.000000546
10.0000005932
10.0000006458
10.0000006937
10.000000752
10.0000007992
10.0000008671
10.0000009102
10.000000995
10.0000010258
10.0000011421
10.0000011424
10.0000013199
10.0000012493
10.0000015496
10.0000013201
10.0000018735
10.0000012961
10.0000023777
10.0000010536
10.0000032362
10.0000003462
10.0000047828
9.99999872072
10.0000075976
9.99999544698
10.0000125221
9.99998962447
10.0000203594
9.99998076201
10.0000309203
9.99997012497
10.0000414164
9.9999622295
10.0000457482
9.9999638642
10.0000380138
9.99997780736
10.0000204645
9.99999597679
10.000005268
10.0000058342
10.0000006405
10.0000057495
10.0000024928
10.0000028126
10.0000022701
10.0000039368
10.00000478
9.9999980582
9.99997733267
9.99994289132
9.99990311988
9.99986995119
9.99985250891
9.99985361112
9.99987007608
9.99989544087
9.9999229791
9.99994774692
9.99996727134
9.99998116181
9.99999025837
9.99999582826
9.99999906047
10.0000008537
10.0000018001
10.0000022509
10.0000024036
10.0000023713
10.0000022288
10.0000020332
10.0000018308
10.000001655
10.0000015264
10.0000014522
10.0000014296
10.0000014497
10.000001501
10.0000015722
10.0000016545
10.0000017412
10.0000018284
10.0000019144
10.0000019982
10.0000020806
10.0000021632
10.0000022477
10.0000023357
10.0000024285
10.0000025269
10.0000026317
10.000002743
10.0000028608
10.0000029846
10.0000031138
10.0000032474
10.0000033845
10.0000035237
10.0000036638
10.0000038028
10.00000394
10.0000040724
10.0000042004
10.0000043192
10.0000044321
10.0000045299
10.0000046223
10.0000046911
10.0000047592
10.0000047901
10.0000048317
10.0000048158
10.0000048323
10.0000047662
10.0000047687
9.99999997982
10.000000021
10.0000000716
10.0000001229
10.0000001743
10.0000002253
10.0000002755
10.0000003243
10.0000003728
10.0000004201
10.0000004684
10.000000516
10.000000566
10.0000006145
10.0000006676
10.0000007169
10.0000007749
10.0000008243
10.00000089
10.0000009378
10.0000010162
10.000001058
10.0000011586
10.000001184
10.0000013252
10.000001311
10.0000015301
10.0000014242
10.000001801
10.0000014858
10.0000021979
10.0000014066
10.0000028555
10.0000009826
10.0000040754
9.99999976466
10.0000065018
9.99999683368
10.0000113883
9.99999052918
10.0000208001
9.99997845539
10.000037161
9.99995869295
10.0000609475
9.99993342114
10.0000859157
9.99991391586
10.0000958867
9.99991887213
10.0000745902
9.99995499041
10.0000309404
9.99999666175
9.9999991638
10.0000145484
9.99999440786
10.0000045834
10.0000080828
10.0000168611
9.99998365023
9.99985988998
9.99962410462
9.99931284121
9.99900667999
9.99878889219
9.99870812044
9.99876641394
9.99892945406
9.99914703728
9.99937136536
9.99956872742
9.99972293909
9.99983234246
9.99990390584
9.99994762905
9.99997290965
9.99998698477
9.99999475118
9.99999919773
10.000001969
10.0000038606
10.0000051937
10.0000060718
10.0000065333
10.0000066241
10.0000064167
10.000006002
10.000005472
10.0000049067
10.0000043653
10.0000038852
10.0000034852
10.0000031698
10.0000029342
10.000002769
10.0000026625
10.0000026033
10.000002582
10.0000025906
10.0000026228
10.0000026741
10.0000027408
10.0000028203
10.0000029106
10.0000030099
10.0000031167
10.0000032296
10.0000033473
10.0000034681
10.000003591
10.0000037136
10.0000038353
10.0000039532
10.000004067
10.0000041736
10.0000042725
10.0000043614
10.0000044381
10.0000045037
10.0000045504
10.0000045883
10.0000045961
10.0000046037
10.0000045627
10.0000045412
10.0000044449
10.0000044058
9.99999997996
10.0000000219
10.0000000737
10.0000001266
10.0000001796
10.0000002321
10.0000002842
10.0000003349
10.0000003852
10.0000004345
10.0000004846
10.0000005339
10.0000005851
10.0000006353
10.0000006889
10.0000007402
10.0000007975
10.0000008503
10.000000913
10.0000009671
10.0000010381
10.0000010926
10.0000011764
10.0000012289
10.0000013328
10.0000013769
10.0000015142
10.0000015338
10.0000017317
10.0000016878
10.0000020092
10.0000018041
10.0000024057
10.0000017859
10.0000030782
10.0000013747
10.0000044404
9.99999990688
10.0000075269
9.99999579225
10.0000146921
9.99998564937
10.0000305323
9.9999636044
10.0000618258
9.99992300642
10.0001129339
9.99986521039
10.0001721905
9.99981653646
10.0001971181
9.9998296447
10.0001413889
9.99991919646
10.0000402024
10.0000117398
9.99996154457
10.0000507195
10.0000489674
9.99994174655
9.99935372494
9.99810123567
9.99623622539
9.99414042513
9.99233750494
9.99125276964
9.99106293988
9.99168868045
9.99288624671
9.99435601757
9.9958278608
9.99711376834
9.99812303991
9.99884673361
9.99932653625
9.99962355694
9.99979655427
9.9998917099
9.99994102872
9.99996494324
9.99997580589
9.99998073113
9.99998353758
9.99998601189
9.99998875666
9.99999176324
9.99999478637
9.99999755879
9.99999989206
10.0000017004
10.0000029865
10.0000038108
10.0000042631
10.0000044389
10.0000044264
10.000004298
10.0000041099
10.0000039016
10.0000036998
10.0000035214
10.0000033757
10.0000032662
10.0000031934
10.0000031552
10.0000031487
10.0000031693
10.0000032141
10.0000032774
10.0000033573
10.0000034472
10.0000035472
10.0000036489
10.0000037559
10.0000038561
10.0000039589
10.0000040456
10.0000041342
10.0000041964
10.0000042622
10.0000042894
10.0000043236
10.0000043055
10.0000042987
10.0000042249
10.000004166
10.0000040278
10.000003907
10.0000037039
9.99999997906
10.0000000239
10.0000000785
10.0000001333
10.0000001874
10.0000002407
10.0000002934
10.0000003453
10.000000397
10.0000004479
10.0000004993
10.0000005503
10.0000006025
10.0000006543
10.0000007084
10.0000007618
10.0000008186
10.0000008744
10.0000009352
10.0000009941
10.0000010604
10.0000011237
10.0000011974
10.0000012668
10.00000135
10.0000014272
10.0000015215
10.0000016088
10.0000017149
10.0000018145
10.0000019327
10.0000020446
10.0000021811
10.0000022873
10.0000024879
10.0000024848
10.0000029678
10.0000024158
10.0000040318
10.0000013333
10.0000069826
9.99999701404
10.0000154658
9.99998367097
10.0000382556
9.99994866543
10.0000922901
9.99987158561
10.0001977403
9.9997412567
10.0003409368
9.99961700503
10.0004027774
9.99965719428
10.0002659489
9.99983694959
10.0000332582
10.0003133483
9.99973962484
9.99774148342
9.99244157958
9.98385735585