/*--------------------------------*- C++ -*----------------------------------*\
  =========                 |
  \\      /  F ield         | OpenFOAM: The Open Source CFD Toolbox
   \\    /   O peration     | Website:  https://openfoam.org
    \\  /    A nd           | Version:  7
     \\/     M anipulation  |
\*---------------------------------------------------------------------------*/
FoamFile
{
    version     2.0;
    format      ascii;
    class       volScalarField;
    location    "1500";
    object      p;
}
// * * * * * * * * * * * * * * * * * * * * * * * * * * * * * * * * * * * * * //

dimensions      [0 2 -2 0 0 0 0];

internalField   nonuniform List<scalar> 
8192
(
0.000628176251835
0.000456635325731
0.000371042072472
0.000326960011088
0.000301969759811
0.000286766873284
0.000276931103656
0.000270216701254
0.000265416272895
0.000261845701493
0.000259097766978
0.000256918804329
0.000255144226002
0.000253663359394
0.000252399464428
0.000251297919969
0.000250318974785
0.000249433143267
0.000248618187191
0.000247857079513
0.000247136594354
0.000246446306905
0.00024577786804
0.000245124466627
0.000244480422174
0.000243840868866
0.00024320150402
0.000242558381207
0.000241907734756
0.000241245825237
0.000240568796954
0.000239872540716
0.000239152556638
0.00023840381242
0.000237620593537
0.000236796342462
0.000235923485229
0.000234993244881
0.000233995443349
0.000232918295745
0.00023174820459
0.000230469565723
0.000229064603121
0.000227513255733
0.00022579314584
0.000223879663662
0.000221746206143
0.000219364606557
0.000216705784372
0.000213740630056
0.00021044111767
0.000206781611417
0.000202740305533
0.000198300715518
0.00019345312647
0.000188195901779
0.000182536557838
0.000176492513533
0.00017009142468
0.000163371018991
0.000156378363199
0.000149168528765
0.000141802679911
0.000134345693056
0.00012686352027
0.00011942060084
0.000112077646838
0.000104890033356
9.79068740605e-05
9.11706960782e-05
8.47175044069e-05
7.85770023207e-05
7.27727919243e-05
6.73224756482e-05
6.22376684527e-05
5.75239889562e-05
5.31811197052e-05
4.92030200139e-05
4.55783463439e-05
4.22910951842e-05
3.9321440505e-05
3.66467031164e-05
3.42423694199e-05
3.2083075569e-05
3.01434867066e-05
2.83990240955e-05
2.68264182879e-05
2.5404088827e-05
2.41123671016e-05
2.29335883491e-05
2.18520822161e-05
2.08540904066e-05
1.99276364928e-05
1.90623682936e-05
1.82493884361e-05
1.74810842832e-05
1.67509647556e-05
1.6053508639e-05
1.53840268301e-05
1.47385394081e-05
1.41136674044e-05
1.35065384716e-05
1.29147052891e-05
1.2336075359e-05
1.17688507918e-05
1.12114767325e-05
1.06625971393e-05
1.01210167815e-05
9.58566841125e-06
9.05558427223e-06
8.52987120291e-06
8.00768886791e-06
7.48823079864e-06
6.97070835506e-06
6.45433808212e-06
5.93833378914e-06
5.42190571836e-06
4.90427125845e-06
4.38468484226e-06
3.86250073604e-06
3.33729308506e-06
2.80907837627e-06
2.27872628697e-06
1.74873074837e-06
1.22470628484e-06
7.18454932804e-07
2.55506443138e-07
-3.67198156158e-08
0.000479253646264
0.000415748751618
0.000366079480005
0.000333454212956
0.00031156062332
0.000296405698742
0.000285609258468
0.000277705686989
0.000271769450091
0.000267202134275
0.000263607781102
0.000260718372012
0.000258348463901
0.000256367055748
0.000254679801147
0.000253217535393
0.000251928724453
0.000250774394512
0.000249724659937
0.000248756300375
0.000247851039016
0.000246994297493
0.000246174280029
0.00024538128821
0.000244607199336
0.000243845061768
0.000243088774668
0.000242332827521
0.000241572083373
0.000240801593239
0.000240016430601
0.00023921153853
0.000238381583461
0.000237520810796
0.00023662289867
0.000235680807162
0.00023468662149
0.00023363138899
0.000232504951516
0.00023129577707
0.000229990797394
0.000228575261737
0.000227032621325
0.000225344463641
0.000223490520451
0.000221448777385
0.000219195714998
0.000216706709882
0.000213956618167
0.000210920551609
0.000207574838438
0.00020389813914
0.000199872665151
0.000195485430682
0.000190729458138
0.000185604856263
0.000180119693478
0.000174290592621
0.000168142975295
0.000161710889131
0.00015503636513
0.00014816828038
0.000141160745788
0.000134071104556
0.000126957710836
0.000119877737843
0.000112885291109
0.000106030016089
9.9356268343e-05
9.29027794808e-05
8.67026448119e-05
8.07834434646e-05
7.51673523411e-05
6.9871194642e-05
6.49064337831e-05
6.02791673527e-05
5.59901912162e-05
5.20351976581e-05
4.84051490104e-05
4.50868365598e-05
4.20636003881e-05
3.93161579732e-05
3.6823473668e-05
3.45636002903e-05
3.25144353699e-05
3.06543533784e-05
2.8962695639e-05
2.74201175139e-05
2.60088053892e-05
2.47125836079e-05
2.35169344464e-05
2.2408953837e-05
2.13772630632e-05
2.04118932041e-05
1.95041554442e-05
1.86465069477e-05
1.78324190845e-05
1.70562524338e-05
1.63131411947e-05
1.55988883006e-05
1.49098716108e-05
1.42429609264e-05
1.35954451909e-05
1.29649690187e-05
1.23494775881e-05
1.17471689303e-05
1.11564526641e-05
1.05759143278e-05
1.00042845259e-05
9.44041227543e-06
8.88324203496e-06
8.33179413819e-06
7.78514852691e-06
7.24243206081e-06
6.70281005366e-06
6.16548341514e-06
5.62969366901e-06
5.0947397085e-06
4.5600123926e-06
4.02505689662e-06
3.48967858757e-06
2.95411805815e-06
2.41933711393e-06
1.88748599263e-06
1.36267214691e-06
8.52279512835e-07
3.68717457928e-07
1.3111375147e-08
0.000396282873
0.000373627848654
0.000347655885692
0.000326443012285
0.000310348175735
0.000298060492763
0.000288559495505
0.000281117035548
0.00027521087507
0.000270461772515
0.000266591493098
0.000263394107831
0.000260715913928
0.00025844119901
0.000256482074243
0.000254771174189
0.000253256386043
0.000251897019486
0.000250661002421
0.000249522810335
0.000248461923175
0.000247461663823
0.00024650831456
0.000245590437245
0.000244698343805
0.000243823677959
0.000242959080037
0.000242097911564
0.000241234026003
0.000240361573646
0.000239474829249
0.0002385680357
0.000237635257958
0.000236670242622
0.000235666279682
0.000234616063878
0.000233511554328
0.000232343832137
0.000231102957353
0.000229777828372
0.000228356049382
0.000226823814215
0.000225165818584
0.000223365216453
0.000221403640453
0.000219261309683
0.000216917250443
0.000214349654741
0.000211536396617
0.00020845571606
0.00020508706442
0.000201412085134
0.000197415682907
0.000193087118116
0.000188421055143
0.000183418494505
0.000178087524217
0.000172443830516
0.000166510908225
0.000160319912706
0.000153909104827
0.000147322862196
0.000140610263209
0.000133823305041
0.000127014897191
0.000120236864358
0.00011353823695
0.000106964011469
0.000100554442625
9.43447972851e-05
8.83653855133e-05
8.26416817214e-05
7.71944107094e-05
7.2039556669e-05
6.71883181745e-05
6.26470671861e-05
5.84173786544e-05
5.44961887662e-05
5.08761184833e-05
4.75459698253e-05
4.44913706899e-05
4.16955184219e-05
3.91399586058e-05
3.68053361268e-05
3.46720673862e-05
3.27209006622e-05
3.09333503332e-05
2.92920063614e-05
2.77807312355e-05
2.63847624913e-05
2.50907408764e-05
2.38866834351e-05
2.27619184658e-05
2.170699628e-05
2.071358665e-05
1.97743710113e-05
1.88829351442e-05
1.80336661448e-05
1.72216560528e-05
1.64426134126e-05
1.56927832873e-05
1.49688757142e-05
1.4268002248e-05
1.35876200441e-05
1.29254828092e-05
1.22795979381e-05
1.16481891292e-05
1.10296638657e-05
1.04225851643e-05
9.82564715267e-06
9.23765407792e-06
8.65750257254e-06
8.08416709237e-06
7.51668877107e-06
6.95416813227e-06
6.39576263377e-06
5.84069046564e-06
5.28824295669e-06
4.73780892907e-06
4.18891608427e-06
3.64129665373e-06
3.09498810974e-06
2.55048479763e-06
2.008964184e-06
1.47261963563e-06
9.4506404241e-07
4.31046739383e-07
2.68627652257e-08
0.000351701293809
0.000343329897523
0.000329157410718
0.000315385749967
0.000303976961803
0.000294719335893
0.000287159703644
0.000280929645611
0.00027575097534
0.000271411129507
0.000267744357942
0.000264619594893
0.000261932373038
0.000259599042728
0.000257552404746
0.000255738307854
0.000254112962506
0.000252640810836
0.000251292836368
0.000250045222383
0.000248878286069
0.000247775629981
0.000246723464111
0.00024571006151
0.000244725318217
0.000243760394433
0.0002428074192
0.000241859241472
0.000240909219914
0.000239951042334
0.000238978564649
0.00023798566482
0.000236966107001
0.000235913412039
0.000234820731349
0.00023368072194
0.000232485421276
0.000231226121568
0.000229893244367
0.000228476217756
0.000226963360493
0.000225341779831
0.000223597292863
0.000221714384783
0.000219676221453
0.000217464737439
0.000215060823564
0.000212444638604
0.000209596066392
0.00020649533076
0.000203123765566
0.000199464716712
0.000195504531281
0.00019123357173
0.000186647185996
0.000181746568645
0.000176539457933
0.000171040619341
0.000165272063174
0.000159262939302
0.000153049057384
0.000146671997861
0.000140177802701
0.000133615279634
0.000127034042599
0.000120482536416
0.000114006373
0.000107647180965
0.000101442029463
9.54233356616e-05
8.96190222647e-05
8.40527082722e-05
7.87438059451e-05
7.37074995825e-05
6.8954650343e-05
6.44916994514e-05
6.0320643429e-05
5.64391423211e-05
5.28407990659e-05
4.95156172583e-05
4.64506108622e-05
4.36305122963e-05
4.10385119607e-05
3.86569649009e-05
3.64680148635e-05
3.44541061517e-05
3.25983731286e-05
3.08849123609e-05
2.92989518477e-05
2.78269361995e-05
2.64565472542e-05
2.5176677984e-05
2.39773747639e-05
2.28497600154e-05
2.17859443316e-05
2.07789347016e-05
1.98225434194e-05
1.8911300696e-05
1.80403728124e-05
1.72054868039e-05
1.64028620609e-05
1.56291488351e-05
1.48813733717e-05
1.415688924e-05
1.34533343438e-05
1.27685930767e-05
1.21007630786e-05
1.14481261017e-05
1.08091225241e-05
1.01823291379e-05
9.56643989185e-06
8.96024939057e-06
8.36263902974e-06
7.77256581801e-06
7.18905406175e-06
6.61119034422e-06
6.03812246137e-06
5.4690634002e-06
4.90330192254e-06
4.34022215733e-06
3.77933577596e-06
3.22033232941e-06
2.66315597221e-06
2.10811814514e-06
1.55603774579e-06
1.00826471538e-06
4.65794224899e-07
2.91918789158e-08
0.000324053755383
0.000322105620681
0.000314326345633
0.000305151829676
0.000296886772883
0.000289868299617
0.000283939305193
0.000278894430997
0.000274565341927
0.000270822383827
0.000267564315833
0.000264709910723
0.000262192554956
0.000259956868195
0.000257956467733
0.000256152360315
0.000254511694546
0.000253006743603
0.000251614054132
0.000250313726821
0.000249088806822
0.000247924767571
0.000246809074181
0.000245730814164
0.00024468038464
0.00024364922667
0.000242629598043
0.000241614374821
0.00024059687961
0.000239570731095
0.000238529706679
0.000237467616207
0.000236378183376
0.00023525493199
0.000234091074756
0.000232879402801
0.000231612174713
0.000230281004552
0.000228876749235
0.00022738939685
0.0002258079591
0.000224120373206
0.000222313421423
0.000220372679845
0.000218282512338
0.000216026129926
0.000213585739919
0.000210942811276
0.000208078481017
0.000204974118856
0.000201612051964
0.000197976429565
0.00019405418194
0.000189836008437
0.000185317322103
0.000180499087424
0.000175388503802
0.000169999495668
0.000164352961878
0.000158476723774
0.000152405112475
0.00014617815157
0.000139840303174
0.000133438774212
0.000127021483239
0.000120634972646
0.000114322686942
0.000108123865026
0.000102073109718
9.62005051118e-05
9.05319620235e-05
8.50895194477e-05
7.98914670655e-05
7.49522895392e-05
7.02825081621e-05
6.58885140016e-05
6.1772478039e-05
5.793240645e-05
5.43623840992e-05
5.10530145974e-05
4.79920261811e-05
4.51649812641e-05
4.25560135933e-05
4.01485225315e-05
3.79257732358e-05
3.58713756747e-05
3.39696371026e-05
3.22057979805e-05
3.05661697468e-05
2.90381956373e-05
2.761045486e-05
2.62726276115e-05
2.50154349469e-05
2.38305641226e-05
2.27105871029e-05
2.16488775574e-05
2.06395298695e-05
1.96772823425e-05
1.87574458409e-05
1.78758384441e-05
1.70287262463e-05
1.6212770156e-05
1.54249783649e-05
1.46626640729e-05
1.39234079942e-05
1.32050251813e-05
1.25055356961e-05
1.18231387118e-05
1.11561896427e-05
1.05031799729e-05
9.8627194786e-06
9.23352062353e-06
8.61438493973e-06
8.00419131017e-06
7.40188612305e-06
6.80647541698e-06
6.2170192569e-06
5.63262885722e-06
5.05246730034e-06
4.47575533292e-06
3.90178456653e-06
3.32994149837e-06
2.75974568032e-06
2.19089836796e-06
1.62330027009e-06
1.05684899209e-06
4.90434916703e-07
2.97195662294e-08
0.000305680643028
0.000306600925738
0.000302580540799
0.000296464349387
0.000290384818915
0.000284963983554
0.000280252443387
0.000276155311429
0.000272565988425
0.000269395982353
0.000266575920518
0.000264050988731
0.000261776729148
0.000259716138491
0.000257837816116
0.00025611478047
0.000254523673779
0.00025304418532
0.000251658599797
0.000250351422197
0.000249109054549
0.000247919512102
0.000246772172114
0.000245657550871
0.000244567105594
0.000243493058917
0.000242428241107
0.000241365946786
0.000240299806987
0.000239223673887
0.000238131511963
0.000237017295527
0.000235874910476
0.00023469805835
0.000233480161042
0.00023221426471
0.000230892941814
0.000229508190592
0.00022805133194
0.00022651290457
0.000224882560603
0.00022314896569
0.000221299710365
0.000219321242909
0.000217198838555
0.000214916625199
0.000212457691245
0.000209804305371
0.000206938278452
0.000203841491574
0.000200496598328
0.00019688788399
0.000193002233484
0.000188830134611
0.000184366635325
0.000179612189276
0.000174573350682
0.000169263292851
0.000163702108276
0.000157916820683
0.000151941037469
0.000145814191909
0.000139580320335
0.000133286313962
0.000126979705545
0.000120706335562
0.000114508469462
0.000108423694991
0.000102484669006
9.67195181595e-05
9.11524393305e-05
8.58041441753e-05
8.06920060955e-05
7.58299519724e-05
7.12282200741e-05
6.68931064096e-05
6.28267988087e-05
5.9027376119e-05
5.54890233125e-05
5.22024731058e-05
4.91556366786e-05
4.63343475603e-05
4.37231276459e-05
4.13058944796e-05
3.90665552284e-05
3.69894630777e-05
3.50597367789e-05
3.32634600665e-05
3.15877848005e-05
3.00209625685e-05
2.85523266609e-05
2.71722421165e-05
2.5872037129e-05
2.46439253014e-05
2.34809251619e-05
2.2376781087e-05
2.13258881246e-05
2.03232220958e-05
1.93642755874e-05
1.84449999715e-05
1.75617532806e-05
1.67112535998e-05
1.5890537538e-05
1.50969233122e-05
1.43279779648e-05
1.35814882625e-05
1.28554348404e-05
1.21479692043e-05
1.14573932252e-05
1.07821408118e-05
1.01207614712e-05
9.4719055164e-06
8.83431070672e-06
8.20679016349e-06
7.58822144489e-06
6.97753675816e-06
6.37371438611e-06
5.77577160459e-06
5.18275961538e-06
4.59376138938e-06
4.00789357443e-06
3.4243131984e-06
2.84222641729e-06
2.26088295381e-06
1.67949592798e-06
1.09691238025e-06
5.10681554372e-07
3.06592461529e-08
0.000292780935702
0.000294934451194
0.000293160990937
0.000289161670111
0.000284688105851
0.000280457879059
0.000276660811896
0.000273291634693
0.000270293239032
0.000267605392472
0.000265177222815
0.00026296803442
0.000260945261931
0.000259082304082
0.000257356879541
0.000255749906074
0.000254244761545
0.000252826791891
0.000251482969597
0.00025020164141
0.00024897232898
0.000247785561826
0.000246632731361
0.000245505959837
0.000244397980807
0.000243302030664
0.000242211744948
0.000241121061492
0.000240024131147
0.000238915234427
0.000237788699664
0.000236638823495
0.000235459792381
0.000234245603891
0.000232989986519
0.000231686316882
0.000230327533222
0.000228906044389
0.000227413633833
0.00022584135878
0.000224179445786
0.000222417185549
0.000220542832267
0.000218543516545
0.000216405185772
0.000214112592307
0.000211649357055
0.000208998142657
0.000206140973758
0.000203059737415
0.000199736880372
0.00019615628965
0.000192304303652
0.000188170766632
0.000183750029357
0.000179041823723
0.000174051983661
0.00016879300754
0.000163284427806
0.000157552901154
0.000151631928506
0.000145561156091
0.000139385184339
0.000133151730999
0.00012690912641
0.000120703574793
0.000114576988671
0.000108565857541
0.00010270123062
9.70095086932e-05
9.15133858643e-05
8.62324665752e-05
8.11834203637e-05
7.63797879099e-05
7.18316257887e-05
6.75451451657e-05
6.3522456091e-05
5.97615048785e-05
5.62562666248e-05
5.29972075563e-05
4.99719701912e-05
4.71661848938e-05
4.4564294831e-05
4.21502986079e-05
3.99083515489e-05
3.78232053876e-05
3.58804955185e-05
3.40669014169e-05
3.23702111981e-05
3.07793195292e-05
2.92841829546e-05
2.78757507132e-05
2.6545883708e-05
2.52872699655e-05
2.40933417397e-05
2.29581972088e-05
2.18765282517e-05
2.08435548679e-05
1.98549662404e-05
1.89068681276e-05
1.7995736099e-05
1.71183740665e-05
1.6271877543e-05
1.54536010868e-05
1.46611294178e-05
1.38922517436e-05
1.31449388681e-05
1.24173227077e-05
1.17076778701e-05
1.10144049945e-05
1.0336015576e-05
9.67111803364e-06
9.0184048026e-06
8.37664027135e-06
7.74464941613e-06
7.12130704552e-06
6.50552763833e-06
5.89625585598e-06
5.29245789567e-06
4.69311382272e-06
4.09721052366e-06
3.50373299672e-06
2.91164579131e-06
2.31984035637e-06
1.72698557976e-06
1.13114766642e-06
5.28996576324e-07
3.31065751967e-08
0.000283311872489
0.000285934334506
0.000285512307871
0.000282996881753
0.000279739460731
0.000276436071703
0.000273352843611
0.000270552573893
0.00026802129538
0.000265723704143
0.000263623613892
0.000261689886808
0.00025989708038
0.000258224529448
0.000256655209247
0.000255174784877
0.000253770911735
0.000252432746784
0.000251150611904
0.000249915759073
0.000248720200867
0.000247556581864
0.000246418075432
0.000245298296298
0.000244191223086
0.000243091130091
0.000241992517709
0.000240890047499
0.000239778481715
0.000238652624084
0.00023750725963
0.000236337094158
0.000235136692474
0.000233900414413
0.00023262234764
0.000231296236142
0.000229915403309
0.000228472668506
0.000226960256213
0.000225369697194
0.000223691721871
0.000221916147498
0.000220031762964
0.000218026218742
0.000215885934923
0.00021359604779
0.000211140424778
0.000208501787438
0.000205661989004
0.000202602491761
0.000199305072785
0.000195752750479
0.00019193087263
0.000187828258325
0.000183438270426
0.000178759733833
0.000173797688304
0.00016856400614
0.000163077854587
0.00015736588455
0.000151462020984
0.000145406828825
0.0001392463847
0.000133030346123
0.000126809025012
0.000120630031138
0.000114535664209
0.000108561720096
0.000102737807099
9.7088690866e-05
9.16356938809e-05
8.63975096968e-05
8.13903270959e-05
7.66274986989e-05
7.21190344607e-05
6.78711087865e-05
6.3885698559e-05
6.01604495997e-05
5.66888506667e-05
5.34607372999e-05
5.04630650418e-05
4.76808259233e-05
4.5097964102e-05
4.26981750593e-05
4.04655244619e-05
3.83848730931e-05
3.64421287889e-05
3.46243627466e-05
3.29198300522e-05
3.13179290176e-05
2.98091257481e-05
2.8384862363e-05
2.70374607015e-05
2.57600285533e-05
2.45463721635e-05
2.33909167038e-05
2.2288635141e-05
2.12349852489e-05
2.02258541462e-05
1.92575096062e-05
1.83265573433e-05
1.74299035226e-05
1.65647217911e-05
1.5728424211e-05
1.49186355382e-05
1.41331703663e-05
1.3370012708e-05
1.26272976459e-05
1.19032947217e-05
1.11963927757e-05
1.05050859736e-05
9.82796079077e-06
9.16368373765e-06
8.51098964274e-06
7.86867032166e-06
7.23556349035e-06
6.61054178551e-06
5.99250173894e-06
5.38035241191e-06
4.7730029743e-06
4.16934733627e-06
3.56824101355e-06
2.96845848245e-06
2.36860418498e-06
1.76692187658e-06
1.16091075928e-06
5.46668867947e-07
3.76901399342e-08
0.000276108784161
0.000278844969216
0.000279234777405
0.000277763481923
0.000275437753109
0.000272874974698
0.000270369067421
0.00026802814369
0.000265873489204
0.000263892451265
0.000262062519129
0.000260360902053
0.0002587676286
0.000257266038123
0.000255842374573
0.000254485178851
0.000253184730128
0.00025193260279
0.000250721337062
0.000249544200806
0.000248395018039
0.000247268043766
0.000246157869863
0.000245059351303
0.000243967545187
0.000242877661289
0.000241785010729
0.000240684958057
0.000239572879747
0.000238444120482
0.00023729394812
0.000236117506973
0.000234909768584
0.000233665479079
0.000232379102086
0.000231044756083
0.00022965614488
0.000228206479842
0.000226688392409
0.00022509383556
0.000223413973361
0.00022163905873
0.000219758301582
0.000217759733104
0.000215630077699
0.0002133546529
0.0002109173293
0.000208300596309
0.000205485791601
0.000202453555309
0.00019918455441
0.000195660479467
0.000191865247076
0.000187786270703
0.000183415635562
0.000178751069667
0.000173796724223
0.000168563854148
0.000163071406544
0.0001573463398
0.000151423481075
0.000145344960115
0.000139159219876
0.000132919038864
0.000126678016922
0.000120486291761
0.000114387269025
0.000108416328538
0.000102601627819
9.69662457094e-05
9.15301975689e-05
8.63114584138e-05
8.13259835951e-05
7.65871640901e-05
7.21051236729e-05
6.78860707091e-05
6.39318116996e-05
6.02395336266e-05
5.680196176e-05
5.36079294025e-05
5.06432803368e-05
4.78919348253e-05
4.53369315986e-05
4.29613045286e-05
4.07487261058e-05
3.8683915121e-05
3.6752846152e-05
3.49428135294e-05
3.32424004939e-05
3.16413941852e-05
3.01306752335e-05
2.87021003625e-05
2.73483886452e-05
2.60630168112e-05
2.48401257502e-05
2.36744384944e-05
2.25611889986e-05
2.14960606087e-05
2.0475132989e-05
1.94948363151e-05
1.85519116442e-05
1.76433765104e-05
1.67664949243e-05
1.59187510772e-05
1.50978261617e-05
1.43015778027e-05
1.35280216767e-05
1.27753149502e-05
1.20417412244e-05
1.13256967056e-05
1.06256773578e-05
9.94026681115e-06
9.26812482248e-06
8.60797608649e-06
7.95859920415e-06
7.31881558493e-06
6.68747800976e-06
6.06345842278e-06
5.44563419111e-06
4.83287130749e-06
4.22400140004e-06
3.61778600211e-06
3.01285474429e-06
2.40759165436e-06
1.79992515967e-06
1.1869635428e-06
5.64449717656e-07
4.48200206139e-08
0.0002704753303
0.000273163884236
0.000274036992068
0.000273300676543
0.000271690666434
0.00026972672697
0.000267698620614
0.0002657396222
0.000263897139516
0.000262177920252
0.000260572207177
0.000259065229409
0.000257642090693
0.000256289511325
0.000254996191058
0.000253752636252
0.000252550828812
0.000251383891799
0.000250245805155
0.000249131181618
0.000248035096424
0.000246952959721
0.00024588042081
0.000244813295114
0.00024374750702
0.000242679045254
0.000241603920252
0.00024051812282
0.000239417592884
0.000238298184486
0.000237155629931
0.000235985501925
0.000234783172744
0.000233543769416
0.000232262123784
0.000230932716134
0.000229549610879
0.000228106382497
0.000226596029707
0.000225010875703
0.000223342452358
0.000221581366963
0.000219717151658
0.000217738099112
0.00021563109399
0.000213381459689
0.000210972854232
0.000208387267833
0.000205605193455
0.000202606052173
0.000199368942684
0.000195873733597
0.000192102425058
0.00018804060126
0.000183678745456
0.000179013267858
0.000174047294243
0.000168791410961
0.000163264432476
0.000157493905932
0.000151516014476
0.000145375055956
0.000139122740309
0.000132816317297
0.000126514248303
0.000120270519616
0.00011413040532
0.000108129027069
0.000102292879031
9.66431490168e-05
9.11985621881e-05
8.59765929732e-05
8.09932534782e-05
7.62622287404e-05
7.17939308239e-05
6.75946780256e-05
6.36660655571e-05
6.00046449077e-05
5.66020654644e-05
5.3445740793e-05
5.05199334714e-05
4.78070264809e-05
4.5288733045e-05
4.29470714964e-05
4.07650361651e-05
3.87269797716e-05
3.68187682619e-05
3.50277805142e-05
3.33428164912e-05
3.17539609678e-05
3.02524335359e-05
2.88304426624e-05
2.74810526237e-05
2.61980666478e-05
2.49759264784e-05
2.3809627081e-05
2.26946445851e-05
2.16268754793e-05
2.06025851932e-05
1.96183644535e-05
1.86710920356e-05
1.77579027822e-05
1.68761599502e-05
1.60234311286e-05
1.51974670972e-05
1.43961831159e-05
1.36176422137e-05
1.28600401214e-05
1.21216915421e-05
1.14010174942e-05
1.06965334925e-05
1.0006838351e-05
9.33060339967e-06
8.66656190291e-06
8.01349843988e-06
7.3702379455e-06
6.73563398155e-06
6.10855554868e-06
5.48787125168e-06
4.87242865676e-06
4.26102483476e-06
3.6523606465e-06
3.04496529818e-06
2.4370682768e-06
1.82638487931e-06
1.20977981314e-06
5.82806159348e-07
5.47642730866e-08
0.000265976569991
0.000268548278602
0.000269702621749
0.000269482998055
0.000268422246503
0.000266944179779
0.000265316257733
0.0002636813383
0.00026210407572
0.000260606594922
0.00025919041823
0.000257848383273
0.000256570561585
0.000255346930417
0.000254168407286
0.00025302711332
0.000251916306264
0.000250830196536
0.000249763743156
0.000248712468828
0.000247672306251
0.000246639475808
0.00024561039017
0.000244581580182
0.000243549638238
0.000242511172221
0.000241462765553
0.000240400938828
0.000239322121622
0.000238222621912
0.000237098594966
0.000235946010418
0.000234760616396
0.000233537899496
0.00023227303932
0.000230960856052
0.000229595749255
0.000228171625699
0.000226681813552
0.00022511895985
0.000223474907864
0.000221740551085
0.000219905661689
0.000217958694198
0.000215886571102
0.000213674468045
0.000211305633485
0.000208761302015
0.000206020788462
0.000203061871176
0.000199861567791
0.000196397349694
0.000192648718914
0.000188598913841
0.000184236416707
0.000179556037344
0.00017455966629
0.000169257073957
0.000163666946843
0.000157817683177
0.00015174728392
0.000145502771584
0.00013914003854
0.00013272245197
0.000126315379918
0.000119978327381
0.000113759323158
0.000107693265922
0.00010180451558
9.61119925066e-05
9.06331298603e-05
8.53851857717e-05
8.03845811789e-05
7.56455718041e-05
7.1179023434e-05
6.6991419081e-05
6.30840701682e-05
5.94526647702e-05
5.60873890768e-05
5.29737304292e-05
5.00938157833e-05
4.74279603753e-05
4.49560943797e-05
4.26588554181e-05
4.05182833464e-05
3.85181617215e-05
3.6644099362e-05
3.48834493709e-05
3.32251439935e-05
3.16594988143e-05
3.01780180663e-05
2.87732171485e-05
2.74384685545e-05
2.61678718624e-05
2.49561457321e-05
2.37985388354e-05
2.26907565102e-05
2.16289002139e-05
2.0609417286e-05
1.96290589739e-05
1.86848450813e-05
1.77740339325e-05
1.68940966208e-05
1.60426947211e-05
1.52176608165e-05
1.44169813125e-05
1.36387811171e-05
1.28813098326e-05
1.21429291686e-05
1.14221013192e-05
1.07173780814e-05
1.00273905002e-05
9.35083883145e-06
8.68648258589e-06
8.03313037607e-06
7.38962917795e-06
6.75485244096e-06
6.12768613318e-06
5.50701120674e-06
4.89167987836e-06
4.28048123629e-06
3.67208848828e-06
3.06497518118e-06
2.45728105298e-06
1.84660251165e-06
1.22968629812e-06
6.02031255677e-07
6.76791946702e-08
0.000262329400596
0.000264758522542
0.000266068461571
0.000266210868547
0.000265570592847
0.000264486447027
0.00026319522078
0.000261838539158
0.000260490697371
0.000259185020582
0.0002579323922
0.000256732536336
0.000255580294475
0.00025446886912
0.000253391365877
0.00025234143402
0.000251313455772
0.000250302526423
0.000249304350277
0.000248315113761
0.000247331363509
0.000246349900113
0.00024536768992
0.000244381793384
0.000243389310057
0.000242387331467
0.000241372900231
0.00024034297409
0.000239294397506
0.00023822387277
0.000237127930922
0.000236002901152
0.000234844877422
0.000233649680979
0.000232412817277
0.000231129425578
0.000229794219121
0.000228401413211
0.000226944637901
0.000225416831234
0.000223810108176
0.000222115599983
0.000220323259046
0.000218421626456
0.000216397565143
0.000214235972857
0.000211919509359
0.000209428402989
0.000206740441348
0.000203831288152
0.000200675277217
0.000197246775219
0.000193522044786
0.000189481303943
0.000185110504617
0.000180402467414
0.000175357514715
0.000169984287039
0.000164301202984
0.000158337763974
0.000152134312942
0.000145741075993
0.000139219011864
0.00013263973257
0.000126078354199
0.000119602128687
0.000113262969471
0.000107095459944
0.0001011209944
9.53556484939e-05
8.98155885498e-05
8.4518259598e-05
7.9480914703e-05
7.47186440622e-05
7.02428739827e-05
6.60602397342e-05
6.21716238311e-05
5.85715282589e-05
5.52481640399e-05
5.21844454567e-05
4.93596797431e-05
4.67514866463e-05
4.43374990118e-05
4.20965884116e-05
4.00095702235e-05
3.80594779051e-05
3.62315442662e-05
3.45130179545e-05
3.28929096663e-05
3.13617271203e-05
2.99112300217e-05
2.85342179995e-05
2.72243539731e-05
2.59760202331e-05
2.47842024691e-05
2.36443966705e-05
2.25525342581e-05
2.15049215578e-05
2.04981904715e-05
1.95292578893e-05
1.85952919336e-05
1.76936835757e-05
1.68220224977e-05
1.5978076335e-05
1.51597726244e-05
1.43651829298e-05
1.35925087244e-05
1.28400686879e-05
1.21062871355e-05
1.13896833361e-05
1.06888615008e-05
1.00025012335e-05
9.32934822608e-06
8.66820494533e-06
8.01792099008e-06
7.37738266434e-06
6.74550108542e-06
6.12119775127e-06
5.50338582957e-06
4.89094431855e-06
4.28268042892e-06
3.67727273741e-06
3.07318373176e-06
2.46852587733e-06
1.86086282992e-06
1.24693245305e-06
6.22296964388e-07
8.36225624516e-08
0.00025934217679
0.000261623019409
0.000263009520769
0.000263403895105
0.000263084461234
0.00026231885109
0.000261310983286
0.000260194481589
0.000259047342725
0.000257910247057
0.000256801348577
0.000255726281245
0.000254684280669
0.000253671674654
0.000252683752726
0.000251715695584
0.000250762984686
0.000249821537947
0.000248887710098
0.000247958233133
0.000247030136214
0.000246100664375
0.000245167204542
0.000244227221466
0.000243278206935
0.000242317634911
0.000241342918737
0.000240351378133
0.000239340209976
0.000238306459953
0.000237246994206
0.000236158469681
0.000235037301827
0.000233879628228
0.000232681266545
0.000231437664827
0.000230143841774
0.000228794313846
0.000227383005215
0.000225903135452
0.000224347078527
0.000222706185564
0.000220970563107
0.000219128799807
0.000217167639018
0.000215071606213
0.000212822622514
0.000210399673458
0.000207778656254
0.000204932588781
0.000201832397265
0.00019844844736
0.000194752780811
0.000190721670951
0.000186337795488
0.000181591418033
0.000176480748346
0.000171012678747
0.000165204933439
0.00015908834987
0.000152706308153
0.00014611256733
0.000139373849578
0.000132572926305
0.000125798863064
0.000119129735485
0.000112622926668
0.000106312502116
0.000100215511795
9.43443749149e-05
8.87141130444e-05
8.33429377478e-05
7.82494034405e-05
7.34495950909e-05
6.89554459322e-05
6.47735821467e-05
6.09041769325e-05
5.73400697038e-05
5.40667963583e-05
5.10638494469e-05
4.83068544218e-05
4.57699817377e-05
4.34279854565e-05
4.12575678737e-05
3.92380652309e-05
3.73516134876e-05
3.55829915382e-05
3.39193068372e-05
3.23496343707e-05
3.08646713583e-05
2.94564359077e-05
2.81180174305e-05
2.68433761846e-05
2.56271849927e-05
2.44647052163e-05
2.33516896494e-05
2.22843061713e-05
2.1259077244e-05
2.02728314646e-05
1.93226642965e-05
1.8405905826e-05
1.75200939282e-05
1.66629516387e-05
1.58323678203e-05