/*--------------------------------*- C++ -*----------------------------------*\
  =========                 |
  \\      /  F ield         | OpenFOAM: The Open Source CFD Toolbox
   \\    /   O peration     | Website:  https://openfoam.org
    \\  /    A nd           | Version:  7
     \\/     M anipulation  |
\*---------------------------------------------------------------------------*/
FoamFile
{
    version     2.0;
    format      ascii;
    class       surfaceScalarField;
    location    "1500";
    object      phi;
}
// * * * * * * * * * * * * * * * * * * * * * * * * * * * * * * * * * * * * * //

dimensions      [0 3 -1 0 0 0 0];

internalField   nonuniform List<scalar> 
16192
(
6.92909285397e-10
2.44590714603e-10
4.93535577904e-10
1.99373709039e-10
3.64792897591e-10
1.28742681865e-10
2.82213868651e-10
8.25790303912e-11
2.27600951614e-10
5.46129184294e-11
1.90008587294e-10
3.75923656696e-11
1.63092172015e-10
2.69164166137e-11
1.4313735953e-10
1.99548138226e-11
1.27908564745e-10
1.52287961392e-11
1.16012427449e-10
1.18961386617e-11
1.06547928458e-10
9.46450036485e-12
9.89112277632e-11
7.63670206344e-12
9.26841027136e-11
6.22712640605e-12
8.75682772799e-11
5.11582676224e-12
8.33455402451e-11
4.22273833243e-12
7.98527577745e-11
3.49278372226e-12
7.69657416081e-11
2.88701737281e-12
7.45885381405e-11
2.37720461517e-12
7.26461313113e-11
1.94240792263e-12
7.10793537779e-11
1.56677856058e-12
6.98412631198e-11
1.2380916275e-12
6.88945127503e-11
9.46751271024e-13
6.82094131252e-11
6.85100471875e-13
6.77624813923e-11
4.46932517491e-13
6.75353432264e-11
2.27138906801e-13
6.7513892547e-11
2.14513730941e-14
6.76876430756e-11
-1.73749857581e-13
6.80492229063e-11
-3.61579180882e-13
6.85939779357e-11
-5.44754368794e-13
6.93196587306e-11
-7.25680116126e-13
7.02261697297e-11
-9.06510262025e-13
7.13153634517e-11
-1.08919291195e-12
7.25908652667e-11
-1.27550088378e-12
7.40579150148e-11
-1.46704867339e-12
7.57232123498e-11
-1.66529606103e-12
7.75947516238e-11
-1.87153777133e-12
7.9681631268e-11
-2.08687785169e-12
8.1993820419e-11
-2.31218703453e-12
8.45418639238e-11
-2.5480410018e-12
8.73365045282e-11
-2.79463768054e-12
9.03882002242e-11
-3.05169229409e-12
9.37065146205e-11
-3.3183104881e-12
9.72993614404e-11
-3.59284236182e-12
1.01172090682e-10
-3.87272421933e-12
1.05326416304e-10
-4.15432001445e-12
1.09759203238e-10
-4.43278074659e-12
1.14461156241e-10
-4.70194624631e-12
1.19415481994e-10
-4.95431845942e-12
1.2459662581e-10
-5.1811360323e-12
1.29969208688e-10
-5.37257466884e-12
1.35487302348e-10
-5.51808511632e-12
1.41094173299e-10
-5.60686217522e-12
1.46722600417e-10
-5.62841825122e-12
1.52295829418e-10
-5.57322018827e-12
1.57729181717e-10
-5.43334372911e-12
1.62932295294e-10
-5.20310542545e-12
1.67811942748e-10
-4.879639945e-12
1.72275340524e-10
-4.46339109554e-12
1.76233819854e-10
-3.95847372244e-12
1.79606670863e-10
-3.37284666154e-12
1.82324899224e-10
-2.71822552829e-12
1.84334565081e-10
-2.00966472247e-12
1.85599323485e-10
-1.26475919737e-12
1.86101796732e-10
-5.02476079854e-13
1.85843529182e-10
2.58262567252e-13
1.84843528044e-10
9.99994068706e-13
1.83135715181e-10
1.70780378545e-12
1.80765824299e-10
2.36988003351e-12
1.77788330409e-10
2.97748147174e-12
1.74263863801e-10
3.52445291186e-12
1.70257292132e-10
4.00655690759e-12
1.65836395047e-10
4.42088152966e-12
1.61070897139e-10
4.76548175166e-12
1.56031594789e-10
5.03928583529e-12
1.50789373014e-10
5.24220508006e-12
1.45414012907e-10
5.37534344793e-12
1.39972795845e-10
5.44120058906e-12
1.34528997993e-10
5.44378173876e-12
1.29140422499e-10
5.38855985356e-12
1.23858133193e-10
5.28227425725e-12
1.18725530103e-10
5.13258869835e-12
1.13777854746e-10
4.94766168829e-12
1.09042146202e-10
4.73569562378e-12
1.04537606898e-10
4.50452715057e-12
1.00276291844e-10
4.26130365823e-12
9.62640135549e-11
4.01226763392e-12
9.25013545764e-11
3.7626490298e-12
8.89846948391e-11
3.51665045283e-12
8.57071840724e-11
3.27750209834e-12
8.26596140997e-11
3.04756186542e-12
7.98311676259e-11
2.8284388743e-12
7.72100370385e-11
2.62112343801e-12
7.47839184744e-11
2.42611181405e-12
7.25403933604e-11
2.24351871021e-12
7.04672130787e-11
2.07317418043e-12
6.85525031568e-11
1.91470407908e-12
6.67849026673e-11
1.76759487053e-12
6.51536527867e-11
1.63124445208e-12
6.36486464863e-11
1.50500103698e-12
6.2260449189e-11
1.38819217636e-12
6.09802983236e-11
1.28014586997e-12
5.98000879624e-11
1.18020547878e-12
5.87123432865e-11
1.08773989593e-12
5.77101884209e-11
1.00215018454e-12
5.67873101722e-11
9.22873660756e-13
5.59379194542e-11
8.49386226955e-13
5.5156711461e-11
7.81203596269e-13
5.44388252015e-11
7.17881966266e-13
5.37798024062e-11
6.59018604744e-13
5.31755455148e-11
6.0425281728e-13
5.26222738125e-11
5.53267744036e-13
5.21164764422e-11
5.05793544784e-13
5.16548601335e-11
4.61612614583e-13
5.12342888388e-11
4.20567751126e-13
5.08517109473e-11
3.8257449591e-13
5.05040682089e-11
3.47639511646e-13
5.01881774279e-11
3.15887720044e-13
4.99005720231e-11
2.87602532634e-13
4.96372833177e-11
2.63286019861e-13
4.9393530449e-11
2.43750396795e-13
4.91632683819e-11
2.30259809756e-13
4.89385119046e-11
2.24754467618e-13
4.87083012488e-11
2.30208899733e-13
4.84571039224e-11
2.51195864898e-13
4.81624085173e-11
2.94694251427e-13
4.77916647737e-11
3.70742941819e-13
4.73013262887e-11
4.90338050896e-13
6.29145516465e-13
9.53394533988e-10
2.28696182346e-10
8.59616378515e-10
2.93151867769e-10
7.45068171677e-10
2.43290891772e-10
6.41899566148e-10
1.8574763873e-10
5.56738308973e-10
1.39774178287e-10
4.88380770274e-10
1.05949906987e-10
4.33802967802e-10
8.14942216852e-11
3.90050198118e-10
6.37075861051e-11
3.54707206721e-10
5.0571790138e-11
3.25916081694e-10
4.06872662815e-11
3.02276404869e-10
3.3104179757e-11
2.82735453071e-10
2.7177656381e-11
2.66497448684e-10
2.24651332463e-11
2.5295521326e-10
1.86580645527e-11
2.41640513294e-10
1.55374405634e-11
2.3218841363e-10
1.29448855318e-11
2.24311689569e-10
1.076374345e-11
2.17782347582e-10
8.90654847468e-12
2.12418155726e-10
7.30660150469e-12
2.08072719342e-10
5.91221651216e-12
2.04628086176e-10
4.68272620372e-12
2.0198917442e-10
3.58566427599e-12
2.00079529425e-10
2.59474656163e-12
1.98838059849e-10
1.68840303637e-12
1.98216504028e-10
8.48695536781e-13
1.98177446128e-10
6.05099576473e-14
1.98692749853e-10
-6.89052994362e-13
1.9974230949e-10
-1.4111383032e-12
2.01313044901e-10
-2.11548929894e-12
2.03398082445e-10
-2.81071717735e-12
2.05996073623e-10
-3.50450089971e-12
2.0911061099e-10
-4.2037296332e-12
2.12749705782e-10
-4.91459485386e-12
2.16925293634e-10
-5.64263546331e-12
2.21652735435e-10
-6.39273647537e-12
2.26950278926e-10
-7.16907947613e-12
2.32838444744e-10
-7.9750413914e-12
2.39339297477e-10
-8.81303691545e-12
2.464755598e-10
-9.68429980257e-12
2.54269525617e-10
-1.05885992282e-11
2.62741728843e-10
-1.15238904178e-11
2.71909328488e-10
-1.24859041355e-11
2.81784181404e-10
-1.34676883232e-11
2.92370592519e-10
-1.44591273881e-11
3.03662761819e-10
-1.54464803539e-11
3.15641987892e-10
-1.64119968499e-11
3.28273739488e-10
-1.73336868931e-11
3.41504764625e-10
-1.8185331727e-11
3.5526046376e-10
-1.89368224696e-11
3.69442797574e-10
-1.95548950852e-11
3.83929017961e-10
-2.00042915786e-11
3.9857149252e-10
-2.02493224924e-11
4.13198835697e-10
-2.02557471309e-11
4.27618473016e-10
-1.99928434514e-11
4.41620666001e-10
-1.94355232419e-11
4.54983932794e-10
-1.85663596913e-11
4.67481717872e-10
-1.73774138402e-11
4.78890083639e-10
-1.58717474211e-11
4.88996098172e-10
-1.40644809892e-11
4.97606472515e-10
-1.19832163272e-11
5.0455586964e-10
-9.66762100174e-12
5.09714193831e-10
-7.16799065447e-12
5.12992107416e-10
-4.54267822722e-12
5.14344077171e-10
-1.85445512898e-12
5.13768504374e-10
8.33822221641e-13
5.1130496671e-10
3.46351496183e-12
5.07029179176e-10
5.98357126396e-12
5.01046679006e-10
8.35235734025e-12
4.93486340775e-10
1.05377945113e-11
4.84494590513e-10
1.25161761596e-11
4.74230718344e-10
1.42704006828e-11
4.62863223559e-10
1.57883469834e-11
4.50566829885e-10
1.70618455414e-11
4.37519732199e-10
1.80863534736e-11
4.2390072535e-10
1.88611820494e-11
4.0988604008e-10
1.93899993289e-11
3.95645898952e-10
1.9681313077e-11
3.81340965426e-10
1.97486876064e-11
3.67118962849e-10
1.96105359141e-11
3.53111773413e-10
1.92894384544e-11
3.39433286617e-10
1.88110516062e-11
3.26178169683e-10
1.82027561312e-11
3.13421606545e-10
1.74922376656e-11
3.01219931581e-10
1.67061823924e-11
2.89611993538e-10
1.58692232973e-11
2.78621036863e-10
1.50032071528e-11
2.68256879876e-10
1.41267900173e-11
2.58518192454e-10
1.32553229369e-11
2.49394716645e-10
1.2400963922e-11
2.40869320318e-10
1.15729450556e-11
2.32919817702e-10
1.07779290965e-11
2.25520526976e-10
1.00204024129e-11
2.18643562012e-10
9.30306557804e-12
2.12259873377e-10
8.62719661168e-12
2.06340064262e-10
7.99297295378e-12
2.00855011787e-10
7.3997465405e-12
1.95776325034e-10
6.84627188322e-12
1.91076669515e-10
6.33089045888e-12
1.86729984776e-10
5.851676457e-12
1.82711618195e-10
5.40654960653e-12
1.78998394308e-10
4.99336075351e-12
1.75568635477e-10
4.60995544463e-12
1.72402146485e-10
4.25422015371e-12
1.69480172938e-10
3.92411513047e-12
1.66785340912e-10
3.61769722256e-12
1.6430158336e-10
3.33313546225e-12
1.62014057036e-10
3.06872176194e-12
1.59909052322e-10
2.82287869787e-12
1.57973896994e-10
2.59416613833e-12
1.56196853909e-10
2.3812883208e-12
1.54567011302e-10
2.1831029946e-12
1.53074163412e-10
1.99863432954e-12
1.51708677604e-10
1.82709158274e-12
1.50461342892e-10
1.66789591522e-12
1.493231927e-10
1.52071844695e-12
1.48285292762e-10
1.38553354114e-12
1.47338482266e-10
1.26269265848e-12
1.46473053817e-10
1.15302580531e-12
1.45678355314e-10
1.05797975013e-12
1.44942297258e-10
9.79804124891e-13
1.44250756621e-10
9.21796592383e-13
1.43586897637e-10
8.88610125242e-13
1.42930513564e-10
8.865902179e-13
1.422577189e-10
9.23988405244e-13
1.41541916077e-10
1.01049560875e-12
1.40758423351e-10
1.15423483969e-12
1.39899851281e-10
1.34890977224e-12
1.52717324674e-12
9.76219156397e-10
1.899770275e-10
9.62970163249e-10
3.06400864056e-10
9.06065543232e-10
3.00195514684e-10
8.33670017503e-10
2.5814316716e-10
7.60779086601e-10
2.12665111787e-10
6.93804791589e-10
1.72924204533e-10
6.34818553149e-10
1.40480462636e-10
5.8392540433e-10
1.14600737421e-10
5.40442775413e-10
9.40544215422e-11
5.03449650974e-10
7.76803931785e-11
4.72025093331e-10
6.45287398151e-11
4.45339970734e-10
5.38627813242e-11
4.22682343131e-10
4.51227631137e-11
4.03454853587e-10
3.78855562511e-11
3.87161854918e-10
3.18304412689e-11
3.73394122253e-10
2.6712620091e-11
3.61814369931e-10
2.23434975184e-11
3.52144680178e-10
1.85762398033e-11
3.44156034272e-10
1.52952488159e-11
3.37659773698e-10
1.24084783004e-11
3.32500705286e-10
9.84179564174e-12
3.28551556167e-10
7.53481421821e-12
3.25708516697e-10
5.43778666104e-12
3.23887651935e-10
3.50926822204e-12
3.23022003714e-10
1.71434399595e-12
3.23059240361e-10
2.32733567653e-14
3.23959739665e-10
-1.58955241417e-12
3.25695011464e-10
-3.14641037673e-12
3.28246388967e-10
-4.66686719338e-12
3.31603925121e-10
-6.16825382549e-12
3.35765440379e-10
-7.66601669733e-12
3.40735673918e-10
-9.17396373009e-12
3.46525494207e-10
-1.07044156491e-11
3.53151125592e-10
-1.2268267259e-11
3.60633347542e-10
-1.38749586575e-11
3.68996620933e-10
-1.55323528654e-11
3.78268093468e-10
-1.72465135957e-11
3.88476432904e-10
-1.90213756282e-11
3.99650434802e-10
-2.08583004889e-11
4.11817350445e-10
-2.27555131022e-11
4.25000883728e-10
-2.47074212874e-11
4.39218813721e-10
-2.67038310121e-11
4.54480216097e-10
-2.87290868118e-11
4.7078228314e-10
-3.07611897326e-11
4.88106781975e-10
-3.27709736459e-11
5.06416244123e-10
-3.47214526011e-11
5.25650045874e-10
-3.65674814029e-11
5.45720612608e-10
-3.82558904071e-11
5.66510051427e-10
-3.97262524921e-11
5.87867570644e-10
-4.09124048462e-11
6.09608064896e-10
-4.17447758579e-11
6.31512217786e-10
-4.21534650473e-11
6.53328395259e-10
-4.2071914135e-11
6.74776484549e-10
-4.14409223652e-11
6.95553697772e-10
-4.02127264911e-11
7.15342232694e-10
-3.8354885327e-11
7.33818573094e-10
-3.58537460106e-11
7.50664105901e-10
-3.27172733784e-11
7.65576605246e-10
-2.89769752777e-11
7.78281980921e-10
-2.46885890872e-11
7.88545529189e-10
-1.99311689271e-11
7.96181793929e-10
-1.48042579391e-11
8.01062075239e-10
-9.42296529815e-12
8.03118683828e-10
-3.911072806e-12
8.02345344718e-10
1.60714887686e-12
7.98793759902e-10
7.01508419239e-12
7.92567093054e-10
1.22102196887e-11
7.83811679028e-10
1.71077505826e-11
7.72708394217e-10
2.16410565982e-11
7.59464811231e-10
2.57597349682e-11
7.4430865282e-10
2.94265338374e-11
7.27482469316e-10
3.26145045678e-11
7.0923910202e-10
3.53051865751e-11
6.89837413251e-10
3.74880159963e-11
6.69537881374e-10
3.91606879721e-11
6.48597872034e-10
4.03299832982e-11
6.27266621772e-10
4.10125387568e-11
6.05780162547e-10
4.12351232387e-11
5.84356541465e-10
4.10341345123e-11
5.63191730299e-10
4.04542283501e-11
5.42456567168e-10
3.95461947207e-11
5.22294948503e-10
3.83643560538e-11
5.02823328741e-10
3.69638399389e-11
4.84131431379e-10
3.53980634767e-11
4.66283959215e-10
3.37166803294e-11
4.49323029107e-10
3.19641231912e-11
4.3327104509e-10
3.0178760933e-11
4.1813375088e-10
2.83926049113e-11
4.039032525e-10
2.66314508291e-11
3.90560859444e-10
2.49153272937e-11
3.78079647984e-10
2.32591302979e-11
3.66426696796e-10
2.16733438066e-11
3.55564980867e-10
2.01647720935e-11
3.45454934524e-10
1.8737233846e-11
3.36055710091e-10
1.7392188521e-11
3.27326166981e-10
1.61292809704e-11
3.19225629111e-10
1.49468012181e-11
3.1171444796e-10
1.38420631855e-11
3.04754405989e-10
1.28117100881e-11
2.98308991286e-10
1.18519560392e-11
2.92343570035e-10
1.09587737935e-11
2.86825479167e-10
1.01280381597e-11
2.81724057515e-10
9.35563371266e-12
2.77010630207e-10
8.63753441517e-12
2.72658457832e-10
7.96986165294e-12
2.68642659195e-10
7.34892625312e-12
2.64940114063e-10
6.77125915871e-12
2.61529350345e-10
6.23363481851e-12
2.58390418259e-10
5.73309077877e-12
2.55504752599e-10
5.26694671712e-12
2.52855022604e-10
4.83282592273e-12
2.5042496775e-10
4.42868234561e-12
2.48199216307e-10
4.05283642903e-12
2.46163082501e-10
3.70402340144e-12
2.44302336847e-10
3.38145806599e-12
2.42602943908e-10
3.0849207696e-12
2.41050761729e-10
2.81486945881e-12
2.39631199953e-10
2.5725825765e-12
2.38328839695e-10
2.36033538966e-12
2.37127033383e-10
2.18160625599e-12
2.36007533154e-10
2.04129309697e-12
2.34950258731e-10
1.94588134438e-12
2.33933435718e-10
1.90341058092e-12
2.3293456302e-10
1.92285908115e-12
2.31933058809e-10
2.01199846688e-12
2.30916036037e-10
2.17125688213e-12
2.29887626436e-10
2.37731911603e-12
2.54379402453e-12
9.71758151724e-10
1.55718877422e-10
9.86648782781e-10
2.91510236137e-10
9.6810997748e-10
3.18734322889e-10
9.27760938459e-10
2.98492208807e-10
8.7745832486e-10
2.62967727866e-10
8.24726725074e-10
2.25655806715e-10
7.73718508031e-10
1.91488682031e-10
7.26469055509e-10
1.61850192261e-10
6.83794038892e-10
1.36729440436e-10
6.4584612638e-10
1.15628307909e-10
6.12440757533e-10
9.79341108028e-11
5.83239894802e-10
8.30636460955e-11
5.57852274964e-10
7.05103848677e-11
5.35885863743e-10
5.98519692436e-11
5.16973520619e-10
5.07427859998e-11
5.00783975377e-10
4.29021667533e-11
4.8702498466e-10
3.61024894533e-11
4.75442514897e-10
3.01587105618e-11
4.65818073036e-10
2.49196914328e-11
4.57965330302e-10
2.02612215345e-11
4.51726636696e-10
1.60804894758e-11
4.46969719932e-10
1.22917309242e-11
4.43584696316e-10
8.82280992325e-12
4.41481432158e-10
5.61253171658e-12
4.40587248614e-10
2.608526563e-12
4.40844940503e-10
-2.34419829682e-13
4.42211068885e-10
-2.95568240927e-12
4.44654484218e-10
-5.58982763817e-12
4.48155043415e-10
-8.16742862004e-12
4.52702475272e-10
-1.07156882001e-11
4.58295353861e-10
-1.32588980676e-11
4.64940139425e-10
-1.58187523099e-11
4.72650245763e-10
-1.84145251981e-11
4.81445091377e-10
-2.10631162356e-11
4.9134908929e-10
-2.37789600275e-11
5.02390527141e-10
-2.65737942094e-11
5.14600285793e-10
-2.94562757038e-11
5.28010341234e-10
-3.24314344139e-11
5.42651992522e-10
-3.54999549254e-11
5.58553758515e-10
-3.86572819633e-11
5.75738890445e-10
-4.18925557172e-11
5.94222457685e-10
-4.51874002944e-11
6.14007983391e-10
-4.85146140207e-11
6.35083637634e-10
-5.18368448595e-11
6.57418040845e-10
-5.51053770516e-11
6.80955791251e-10
-5.82592024551e-11
7.05612905306e-10
-6.12245941167e-11
7.31272444587e-10
-6.39154275273e-11
7.57780685268e-10
-6.62344901929e-11
7.84944250343e-10
-6.80759661408e-11
8.12528649458e-10
-6.93291704506e-11
8.40258638923e-10
-6.98834493412e-11
8.67820718038e-10
-6.9633987572e-11
8.9486793058e-10
-6.84881289025e-11
9.21026973224e-10
-6.63717630349e-11
9.45907462041e-10
-6.32353682141e-11
9.69113088177e-10
-5.90593666965e-11
9.9025428466e-10
-5.38584652224e-11
1.00896188917e-09
-4.76845763347e-11
1.0249011118e-09
-4.06278098328e-11
1.03778493457e-09
-3.28149918009e-11
1.04738592186e-09
-2.44052476927e-11
1.0535453211e-09
-1.55823697205e-11
1.05617834819e-09
-6.54410796902e-12
1.0552748608e-09
2.51062525239e-12
1.05089535607e-09
1.13945751754e-11
1.04316319614e-09
1.99423634767e-11
1.03225468076e-09
2.8016247874e-11
1.01838875518e-09
3.5506962609e-11
1.00181771433e-09
4.23307552153e-11
9.82819472161e-10
4.84247547404e-11
9.61691231136e-10
5.37427239997e-11
9.38743982106e-10
5.82524139862e-11
9.14297216588e-10
6.19347601554e-11
8.88673409978e-10
6.47844737283e-11
8.62192094045e-10
6.6811279104e-11
8.35163593881e-10
6.80410196866e-11
8.07882718722e-10
6.85159801892e-11
7.80622837244e-10
6.82939988826e-11
7.53630810393e-10
6.74462392407e-11
7.27123188345e-10
6.6053801954e-11
7.01283924999e-10
6.42036057128e-11
6.76263669028e-10
6.19840832937e-11
6.52180507752e-10
5.94812131416e-11
6.29121906209e-10
5.67752711765e-11
6.07147514929e-10
5.39385045954e-11
5.86292510696e-10
5.10337560039e-11
5.66571169073e-10
4.81139379785e-11
5.47980426018e-10
4.52221858279e-11
5.30503252124e-10
4.23924935316e-11
5.1411172545e-10
3.96506496173e-11
4.98769741391e-10
3.70153207308e-11
4.84435338259e-10
3.44991682334e-11
4.71062645758e-10
3.21099194361e-11
4.58603481758e-10
2.98513456393e-11
4.47008633118e-10
2.77241227185e-11
4.36228860729e-10
2.57265666738e-11
4.262156694e-10
2.38552475216e-11
4.16921881072e-10
2.21054913518e-11
4.08302046315e-10
2.04717836586e-11
4.00312724777e-10
1.89480881225e-11
3.92912660876e-10
1.75280947926e-11
3.86062876699e-10
1.62054105749e-11
3.79726700194e-10
1.49737035801e-11
3.73869743115e-10
1.38268113874e-11
3.68459840147e-10
1.2758821898e-11
3.63466957851e-10
1.17641341783e-11
3.58863079795e-10
1.08375056757e-11
3.54622072139e-10
9.97409133846e-12
3.50719532298e-10
9.16947959803e-12
3.47132621672e-10
8.41972975116e-12
3.43839882319e-10
7.72141509404e-12
3.40821036302e-10
7.07167606182e-12
3.3805676592e-10
6.46828764805e-12
3.35528472861e-10
5.90974526493e-12
3.33218015253e-10
5.39537282125e-12
3.31107423969e-10
4.92545551495e-12
3.29178604832e-10
4.5013968475e-12
3.27413043065e-10
4.12589267984e-12
3.25791544012e-10
3.80310126196e-12
3.24294073952e-10
3.53875957581e-12
3.2289981426e-10
3.340137975e-12
3.21587617959e-10
3.21560438793e-12
3.20337159454e-10
3.17331571366e-12
3.19131147958e-10
3.21800871849e-12
3.17958684833e-10
3.34371932763e-12
3.16817693722e-10
3.51830996653e-12
3.65639311731e-12
9.63951574558e-10
1.29267304495e-10
9.87721963871e-10
2.67739849845e-10
9.89834795876e-10
3.16621493624e-10
9.72374284724e-10
3.15952722477e-10
9.42283602016e-10
2.93058412956e-10
9.05605611249e-10
2.62333799775e-10
8.66531805972e-10
2.30562489544e-10
8.27706627233e-10
2.00675373188e-10
7.90684214191e-10
1.73751855606e-10
7.56302112256e-10
1.50010411892e-10
7.2494592221e-10
1.29290302793e-10
6.96726115445e-10
1.11283454675e-10
6.71592552822e-10
9.56439491545e-11
6.49407105145e-10
8.20374184066e-11
6.29988858546e-10
7.01610338858e-11
6.13141681933e-10
5.97493444302e-11
5.98670586071e-10
5.05735861367e-11
5.86391037805e-10
4.24382593799e-11
5.76133898675e-10
3.51768308287e-11
5.67747686372e-10
2.86474337891e-11
5.61099232862e-10
2.27289426073e-11
5.56073413051e-10
1.73175500021e-11
5.52572363117e-10
1.2323858752e-11
5.50514445339e-10
7.67044799786e-12
5.49833113311e-10
3.28985668864e-12
5.50475765953e-10
-8.77074794289e-13
5.52402633459e-10
-4.88255266406e-12
5.5558571757e-10
-8.77291493278e-12
5.60007792682e-10
-1.25895073481e-11
5.65661452461e-10
-1.63693520252e-11
5.725481847e-10
-2.01456347654e-11
5.80677449964e-10
-2.39480224301e-11
5.90065733946e-10
-2.78028144018e-11
6.00735538121e-10
-3.17329259644e-11
6.12714268331e-10
-3.57576960737e-11
6.26032975831e-10
-3.98925077749e-11
6.40724900655e-10
-4.41482067537e-11
6.56823762993e-10
-4.85303030647e-11
6.74361745692e-10
-5.30379439389e-11
6.93367110886e-10
-5.7662653384e-11
7.13861397988e-10
-6.23868488591e-11
7.3585616085e-10
-6.71821689103e-11
7.59349221704e-10
-7.20076802412e-11
7.8432045152e-10
-7.68080795533e-11
8.10727133817e-10
-8.15120636413e-11
8.38499033877e-10
-8.60311061322e-11
8.67533377411e-10
-9.02589405131e-11
8.97690037408e-10
-9.40720895618e-11
9.28787323643e-10
-9.73317775928e-11
9.60598847061e-10
-9.98874898205e-11
9.92851965364e-10
-1.01582288121e-10
1.02522828237e-09
-1.02259764862e-10
1.05736656012e-09
-1.01772263066e-10
1.088868224e-09
-9.99897899023e-11
1.11930544021e-09
-9.68089759396e-11
1.1482315743e-09
-9.21614987924e-11
1.17519372355e-09
-8.60215125304e-11
1.19974692285e-09
-7.8411661514e-11
1.22146948744e-09
-6.9407138695e-11
1.23997875466e-09
-5.91370760005e-11
1.25494627482e-09
-4.77825125119e-11
1.26611133461e-09
-3.55703100735e-11
1.27329154834e-09
-2.27625884457e-11
1.27638915901e-09
-9.64172625715e-12
1.27539195025e-09
3.50782373204e-12
1.27036856354e-09
1.64179491261e-11
1.2614592979e-09
2.88516142713e-11
1.24886444159e-09
4.06110877198e-11
1.23283239869e-09
5.15389879213e-11
1.21364925895e-09
6.15138766621e-11
1.191630383e-09
7.04436120304e-11
1.16711363978e-09
7.82594485073e-11
1.14045349444e-09
8.49125408185e-11
1.11201517658e-09
9.03730599542e-11
1.08216843469e-09
9.46311982292e-11
1.05128070939e-09
9.76989878598e-11
1.01970985147e-09
9.96118620185e-11
9.87796748754e-10
1.00429068381e-10
9.55858384675e-10
1.00232349529e-10
9.24181897007e-10
9.91227145755e-11
8.93020118854e-10
9.72155688438e-11
8.62588892971e-10
9.46348213507e-11
8.33066213504e-10
9.15067534613e-11
8.04593033113e-10
8.79543850882e-11
7.77275422895e-10
8.40928737068e-11
7.51187702289e-10
8.00262181611e-11
7.26376155861e-10
7.58452959284e-11
7.02863000953e-10
7.16270868068e-11
6.80650340852e-10
6.74348401647e-11
6.5972391371e-10
6.33189151254e-11
6.40056516127e-10
5.93180417765e-11
6.21611036562e-10
5.5460794914e-11
6.04343076019e-10
5.17671233708e-11
5.88203162966e-10
4.82498270046e-11
5.73138588325e-10
4.49159146731e-11
5.59094897055e-10
4.17678082282e-11
5.46017077587e-10
3.88043802091e-11
5.33850491114e-10
3.60218278794e-11
5.22541580851e-10
3.34143953166e-11
5.12038398018e-10
3.09749600178e-11
5.02290977173e-10
2.86955023311e-11
4.93251589179e-10
2.65674760078e-11
4.84874895795e-10
2.45820970594e-11
4.7711802592e-10
2.27305664647e-11
4.69940589838e-10
2.10042404158e-11
4.63304644659e-10
1.93947599945e-11
4.57174621256e-10
1.78941505005e-11
4.51517220644e-10
1.64948992465e-11
4.46301285573e-10
1.51900194396e-11
4.41497651447e-10
1.39731068637e-11
4.37078979129e-10
1.28383953478e-11
4.3301957118e-10
1.17808164992e-11
4.29295172193e-10
1.07960687117e-11
4.25882753739e-10
9.88070000567e-12
4.22760284691e-10
9.03220848437e-12
4.19906489158e-10
8.24916282684e-12
4.17300596982e-10
7.53134249252e-12
4.14922096882e-10
6.87989211327e-12
4.12750510523e-10
6.29747459682e-12
4.10765218849e-10
5.78838892978e-12
4.08945390944e-10
5.35858394811e-12
4.07270091542e-10
5.01543437069e-12
4.05718670914e-10
4.76702258637e-12
4.04271547807e-10
4.62043702186e-12
4.02911387913e-10
4.57816744854e-12
4.01624128998e-10
4.63097760885e-12
4.00397304764e-10
4.74513394812e-12
4.84436454014e-12
9.57569019356e-10
1.09198286813e-10
9.82617093747e-10
2.42691778343e-10
9.95181249783e-10
3.04057340225e-10
9.92516678935e-10
3.18617295676e-10
9.77769676447e-10
3.07805417636e-10
9.55042161097e-10
2.85061317227e-10
9.27785852111e-10
2.57818800574e-10
8.98533912765e-10
2.29927314524e-10
8.69024244383e-10
2.03261525909e-10
8.40392566924e-10
1.78642091176e-10
8.13344488172e-10
1.5633838325e-10
7.88288526126e-10
1.36339418275e-10
7.65433153515e-10
1.18499323145e-10
7.44855535067e-10
1.02615038033e-10
7.26549343706e-10
8.84672261973e-11
7.10457583171e-10
7.58411056648e-11
6.96494851978e-10
6.45363177514e-11
6.84562255937e-10
5.43708555392e-11
6.74557244896e-10
4.51818416604e-11
6.66379969594e-10
3.68247085265e-11
6.59937268928e-10
2.91716423291e-11
6.55145055435e-10
2.21097621437e-11
6.51929627226e-10
1.5539285179e-11
6.50228267628e-10
9.37180535926e-12
6.49989377823e-10
3.52874378028e-12
6.51172307366e-10
-2.06000754682e-12
6.53746984435e-10
-7.45723345344e-12
6.57693424225e-10
-1.2719358968e-11
6.63001154429e-10
-1.78972423275e-11
6.69668572972e-10
-2.3036775877e-11
6.77702243876e-10
-2.81793115043e-11
6.87116124352e-10
-3.33619092541e-11
6.97930706336e-10
-3.86174032247e-11
7.10172047231e-10
-4.39742741573e-11
7.23870657152e-10
-4.94563137086e-11
7.39060203097e-10
-5.50820617943e-11
7.55775984267e-10
-6.08639962932e-11
7.74053127467e-10
-6.6807454852e-11
7.93924447753e-10
-7.29092729417e-11
8.15417918272e-10
-7.91561326504e-11
8.38553696102e-10
-8.55226353605e-11
8.63340659977e-10
-9.19691412655e-11
8.89772433948e-10
-9.8439462386e-11
9.17822901827e-10
-1.04858555177e-10
9.47441264472e-10
-1.11130433488e-10
9.7854675916e-10
-1.17136607358e-10
1.01102324854e-09
-1.22735435657e-10
1.04471399293e-09
-1.27762838854e-10
1.0794170326e-09
-1.32034821191e-10
1.11488170412e-09
-1.35352164245e-10
1.150806866e-09
-1.37507451845e-10
1.18684137789e-09
-1.38294277525e-10
1.22258724623e-09
-1.37518131162e-10
1.25760563141e-09
-1.35008173929e-10
1.29142566643e-09
-1.30629009071e-10
1.323555845e-09
-1.24291674968e-10
1.35349763892e-09
-1.15963303841e-10
1.3807609502e-09
-1.05674970312e-10
1.40488087935e-09
-9.35270658667e-11
1.42543505074e-09
-7.96912463648e-11
1.44206047949e-09
-6.44079416728e-11
1.4544687885e-09
-4.7978621427e-11
1.46245838004e-09
-3.07521846901e-11
1.46592187715e-09
-1.31052307454e-11
1.46484726668e-09
4.58242411273e-12
1.45931229021e-09
2.19529130136e-11
1.44947340147e-09
3.86904884078e-11
1.43555196424e-09
5.45325088953e-11
1.41782063338e-09
6.92703018483e-11
1.39659195103e-09
8.27425416514e-11
1.37220966901e-09
9.48258765991e-11
1.34504208519e-09
1.05427015073e-10
1.31547622714e-09
1.14478382061e-10
1.2839118957e-09
1.21937375252e-10
1.25075501023e-09
1.27788068418e-10
1.21641011109e-09
1.3204387273e-10
1.1812722076e-09
1.34749752336e-10
1.14571842625e-09
1.35982837712e-10
1.11010009899e-09
1.35850665925e-10
1.07473598373e-09
1.34486820091e-10
1.03990719735e-09
1.32044346537e-10
1.00585419763e-09
1.28687813364e-10
9.72775856106e-10
1.24585088165e-10
9.40830405399e-10
1.19899829749e-10
9.10137876482e-10
1.14785397239e-10
8.80783574775e-10
1.09380515029e-10
8.52822159929e-10
1.03806706355e-10
8.2628196058e-10
9.81672820452e-11
8.01169242577e-10
9.25475542473e-11
7.77472236387e-10
8.70159174862e-11
7.55164804431e-10
8.16254698986e-11
7.34209688154e-10
7.64159072757e-11
7.1456131724e-10
7.14154902204e-11
6.96168192224e-10
6.66429477583e-11
6.78974869477e-10
6.21092329205e-11
6.62923587271e-10
5.78190856737e-11
6.47955575592e-10
5.3772386852e-11
6.34012092647e-10
4.996530551e-11
6.2103522888e-10
4.63912534977e-11
6.08968515872e-10
4.30416671829e-11
5.9775737341e-10
3.99066387134e-11
5.8734942372e-10
3.69754194067e-11
5.77694697674e-10
3.42368166327e-11
5.68745753864e-10
3.16795036556e-11
5.60457727861e-10
2.92922596874e-11
5.52788325833e-10
2.70641552189e-11
5.45697773865e-10
2.49846956293e-11
5.39148731983e-10
2.30439342933e-11
5.33106179781e-10
2.12325648504e-11
5.27537278877e-10
1.95420010596e-11
5.22411216031e-10
1.79644516057e-11
5.17699029722e-10
1.64929963779e-11
5.13373422294e-10
1.51216699031e-11
5.09408559574e-10
1.3845556717e-11
5.05779860191e-10
1.26609021196e-11
5.02463777918e-10
1.15652396455e-11
4.99437582448e-10
1.05575328332e-11
4.96679147459e-10
9.63832233134e-12
4.94166759926e-10
8.80985775056e-12
4.91878971667e-10
8.07617324008e-12
4.89794522427e-10
7.44302971008e-12
4.87892370625e-10
6.9175832137e-12
4.86151862903e-10
6.50752791745e-12
4.84553025354e-10
6.21927279242e-12
4.83076775292e-10
6.05441635434e-12
4.81704290402e-10
6.0034618714e-12
4.80413490094e-10
6.03593400364e-12
6.08854560467e-12
9.52957900471e-10
9.37403878276e-11
9.7658002092e-10
2.190696605e-10
9.94001836915e-10
2.86635526571e-10
1.00050634056e-09
3.12112794154e-10
9.96720181049e-10
3.11591579144e-10
9.85051016175e-10
2.96730484012e-10
9.68038918331e-10
2.74830900275e-10
9.47814151589e-10
2.50152083069e-10
9.26005515618e-10
2.25070163611e-10
9.03797445219e-10
2.00850163206e-10
8.82020918513e-10
1.78114911456e-10
8.61239576799e-10
1.57120761331e-10
8.41820690092e-10
1.37918211007e-10
8.23990328291e-10
1.20445400775e-10
8.07875005884e-10
1.04582549304e-10
7.93532574499e-10
9.01835374827e-11
7.80974867975e-10
7.70940244148e-11
7.70184144443e-10
6.51615788894e-11
7.61124919691e-10
5.42410658838e-11
7.5375240495e-10
4.41972223614e-11
7.48018458725e-10
3.49055872444e-11
7.43875727848e-10
2.62524912776e-11
7.41280475234e-10
1.81345355907e-11
7.40194458317e-10
1.04578195859e-11
7.40586122659e-10
3.13707623697e-12
7.42431301644e-10
-3.90519026896e-12
7.45713549078e-10
-1.07394851788e-11
7.5042421708e-10
-1.74300318316e-11
7.56562331817e-10
-2.40353625088e-11
7.64134305785e-10
-3.06087558761e-11
7.73153509185e-10
-3.71985215217e-11
7.83639707526e-10
-4.38481147892e-11
7.95618360243e-10
-5.05960636927e-11
8.0911976469e-10
-5.74756868846e-11
8.24178020671e-10
-6.45145784586e-11
8.4082978231e-10
-7.17338326382e-11
8.59112756501e-10
-7.91469800592e-11
8.79063900481e-10
-8.67586087005e-11
9.00717265735e-10
-9.45626482682e-11
9.24101432279e-10
-1.02540309369e-10
9.49236477792e-10
-1.10657691039e-10
9.76130432212e-10
-1.18863105723e-10
1.00477518319e-09
-1.2708422315e-10
1.03514182542e-09
-1.35225206809e-10
1.06717549198e-09
-1.43164108944e-10
1.100789774e-09
-1.50750897632e-10
1.13586092921e-09