/*--------------------------------*- C++ -*----------------------------------*\
  =========                 |
  \\      /  F ield         | OpenFOAM: The Open Source CFD Toolbox
   \\    /   O peration     | Website:  https://openfoam.org
    \\  /    A nd           | Version:  7
     \\/     M anipulation  |
\*---------------------------------------------------------------------------*/
FoamFile
{
    version     2.0;
    format      ascii;
    class       volVectorField;
    location    "1500";
    object      U;
}
// * * * * * * * * * * * * * * * * * * * * * * * * * * * * * * * * * * * * * //

dimensions      [0 1 -1 0 0 0 0];

internalField   nonuniform List<vector> 
8192
(
(0.00104346194265 0.000156538057346 0)
(0.000759324712512 0.000127599173785 0)
(0.000549330224317 8.23953163939e-05 0)
(0.000414084330395 5.28505794504e-05 0)
(0.00032628148497 3.49522677948e-05 0)
(0.000267270104901 2.40591140286e-05 0)
(0.000225984485958 1.72265066328e-05 0)
(0.000195986900189 1.27710808465e-05 0)
(0.000173469391536 9.74642952907e-06 0)
(0.000156109435004 7.61352874346e-06 0)
(0.000142438627781 6.05728023351e-06 0)
(0.000131493859982 4.8874893206e-06 0)
(0.000122621011505 3.98536089987e-06 0)
(0.000115361523196 3.27412912783e-06 0)
(0.000109384843216 2.70255253275e-06 0)
(0.000104446910733 2.23538158225e-06 0)
(0.000100363839605 1.8476911186e-06 0)
(9.69947390391e-05 1.52141095371e-06 0)
(9.42301884492e-05 1.24314107048e-06 0)
(9.19843104571e-05 1.00273827877e-06 0)
(9.01891948145e-05 7.92378641598e-07 0)
(8.87908965568e-05 6.05920813455e-07 0)
(8.77465125603e-05 4.38464302e-07 0)
(8.70220124912e-05 2.86036811194e-07 0)
(8.6590607756e-05 1.45368900352e-07 0)
(8.6431510895e-05 1.37288787802e-08 0)
(8.65289827985e-05 -1.11199908852e-07 0)
(8.68715942284e-05 -2.31410675765e-07 0)
(8.74516485389e-05 -3.48642796028e-07 0)
(8.82647274664e-05 -4.64435274321e-07 0)
(8.93093302146e-05 -5.80166567696e-07 0)
(9.05865812361e-05 -6.97083463646e-07 0)
(9.20999863798e-05 -8.16320565621e-07 0)
(9.38552193801e-05 -9.38911150971e-07 0)
(9.58599215133e-05 -1.06578947906e-06 0)
(9.81234969431e-05 -1.19778417365e-06 0)
(0.000100656885051 -1.33560182508e-06 0)
(0.00010347228908 -1.4797997021e-06 0)
(0.000106582837979 -1.63074624115e-06 0)
(0.000110002155809 -1.78856811555e-06 0)
(0.000113743811042 -1.95308306822e-06 0)
(0.000117820617501 -2.12371871239e-06 0)
(0.000122243760679 -2.29941911156e-06 0)
(0.000127021729358 -2.47854350037e-06 0)
(0.000132159044471 -2.65876480925e-06 0)
(0.000137654796507 -2.83697967782e-06 0)
(0.000143501030066 -3.00924559764e-06 0)
(0.00014968104847 -3.17076381403e-06 0)
(0.000156167748994 -3.31592706067e-06 0)
(0.000162922134079 -3.43844778806e-06 0)
(0.000169892167063 -3.53157447445e-06 0)
(0.000177012144415 -3.58839179214e-06 0)
(0.000184202735178 -3.60218768078e-06 0)
(0.000191371795094 -3.56686092049e-06 0)
(0.000198416007126 -3.47733998663e-06 0)
(0.000205223345287 -3.32998747229e-06 0)
(0.000211676312347 -3.1229695648e-06 0)
(0.000217655861294 -2.85657030115e-06 0)
(0.000223045862642 -2.53342318236e-06 0)
(0.000227737914059 -2.15862186339e-06 0)
(0.000231636204856 -1.73966433811e-06 0)
(0.000234662057155 -1.28618542238e-06 0)
(0.000236757688682 -8.09445886315e-07 0)
(0.000237888716939 -3.21584691106e-07 0)
(0.000238045008585 1.65288043041e-07 0)
(0.000237239716624 6.39996203972e-07 0)
(0.000235506715664 1.09299442269e-06 0)
(0.000232896985267 1.51672322145e-06 0)
(0.000229474659013 1.90558814191e-06 0)
(0.000225313404294 2.25564986359e-06 0)
(0.000220493539797 2.56419642086e-06 0)
(0.000215099959795 2.82936417898e-06 0)
(0.000209220666999 3.04990832106e-06 0)
(0.000202945594834 3.22514293459e-06 0)
(0.000196365419394 3.35501125124e-06 0)
(0.000189570166989 3.44021980667e-06 0)
(0.000182647557601 3.482368377e-06 0)
(0.000175681148057 3.48402031281e-06 0)
(0.000168748429115 3.44867830628e-06 0)
(0.000161919075643 3.38065552464e-06 0)
(0.000155253544509 3.28485676695e-06 0)
(0.000148802166303 3.16650348051e-06 0)
(0.000142604800607 3.03084519922e-06 0)
(0.000136691041984 2.88289737636e-06 0)
(0.000131080895195 2.72723434127e-06 0)
(0.000125785795455 2.56785128571e-06 0)
(0.000120809835604 2.40809537907e-06 0)
(0.000116151071626 2.25065628981e-06 0)
(0.000111802802503 2.09760134294e-06 0)
(0.00010775475083 1.95043959387e-06 0)
(0.000103994100304 1.81020087955e-06 0)
(0.000100506370985 1.67751900033e-06 0)
(9.72761315282e-05 1.55271156099e-06 0)
(9.42875595742e-05 1.43585197453e-06 0)
(9.1524868121e-05 1.32683147548e-06 0)
(8.89726183907e-05 1.22541061061e-06 0)
(8.66159397274e-05 1.13126071714e-06 0)
(8.44406754906e-05 1.04399644933e-06 0)
(8.24334715347e-05 9.6320066367e-07 0)
(8.05818212322e-05 8.88442992868e-07 0)
(7.88740784081e-05 8.19293356782e-07 0)
(7.7299447223e-05 7.55331506417e-07 0)
(7.58479559993e-05 6.96153533396e-07 0)
(7.45104202928e-05 6.41376118103e-07 0)
(7.32783990996e-05 5.90639142884e-07 0)
(7.21441469609e-05 5.43607185251e-07 0)
(7.11005637857e-05 4.99970301612e-07 0)
(7.0141143464e-05 4.5944445841e-07 0)
(6.92599216689e-05 4.21771907036e-07 0)
(6.84514226694e-05 3.86721803059e-07 0)
(6.77106043695e-05 3.54091356183e-07 0)
(6.7032800163e-05 3.23707868662e-07 0)
(6.64136554085e-05 2.95432073333e-07 0)
(6.58490553423e-05 2.69163360721e-07 0)
(6.53350398631e-05 2.44847677383e-07 0)
(6.486769866e-05 2.22489287453e-07 0)
(6.44430372076e-05 2.02168140828e-07 0)
(6.40567996486e-05 1.84065620886e-07 0)
(6.37042274181e-05 1.68503052711e-07 0)
(6.33797208107e-05 1.56000253949e-07 0)
(6.30763512518e-05 1.47366278244e-07 0)
(6.27851393834e-05 1.43842859276e-07 0)
(6.24939604182e-05 1.47333695829e-07 0)
(6.21858593096e-05 1.60765353535e-07 0)
(6.18364879614e-05 1.88604320913e-07 0)
(6.14106069063e-05 2.37275482764e-07 0)
(6.08595142799e-05 3.13816352573e-07 0)
(6.01430444198e-05 4.02653130538e-07 0)
(0.00121017250175 0.000302903614047 0)
(0.001160326984 0.000315216369157 0)
(0.00102699811212 0.000238101487128 0)
(0.000887659352208 0.000171729068238 0)
(0.000767128240078 0.000124407741899 0)
(0.000668876210718 9.18670545001e-05 0)
(0.000590197592369 6.93828085113e-05 0)
(0.000527266026188 5.35439359537e-05 0)
(0.000476644739097 4.21123752174e-05 0)
(0.000435598904586 3.36533791636e-05 0)
(0.000402043191401 2.7243955278e-05 0)
(0.000374407589082 2.22811894044e-05 0)
(0.000351509057123 1.83630461775e-05 0)
(0.000332449703644 1.52152904415e-05 0)
(0.000316541264995 1.26465144933e-05 0)
(0.000303250513231 1.05201083226e-05 0)
(0.000292160066047 8.73648692662e-06 0)
(0.000282940183777 7.2216019775e-06 0)
(0.000275328322117 5.91936603348e-06 0)
(0.000269114160043 4.78655684655e-06 0)
(0.000264128515531 3.78932341198e-06 0)
(0.000260235046781 2.90074595009e-06 0)
(0.000257323970461 2.09910210144e-06 0)
(0.000255307257136 1.36661475447e-06 0)
(0.000254114920882 6.88534043892e-07 0)
(0.0002536921281 5.24552516744e-08 0)
(0.000253996925428 -5.52193825243e-07 0)
(0.00025499843798 -1.13453918981e-06 0)
(0.00025667542681 -1.70255594735e-06 0)
(0.000259015121502 -2.26329426783e-06 0)
(0.000262012259883 -2.82304714351e-06 0)
(0.000265668278152 -3.3874704289e-06 0)
(0.000269990602734 -3.96166127209e-06 0)
(0.000274991999627 -4.55019784749e-06 0)
(0.000280689938604 -5.1571408233e-06 0)
(0.000287105929191 -5.78599503838e-06 0)
(0.000294264783148 -6.43962831558e-06 0)
(0.000302193755021 -7.12014332799e-06 0)
(0.000310921508657 -7.8286981148e-06 0)
(0.000320476854667 -8.56527162163e-06 0)
(0.000330887202854 -9.32837293563e-06 0)
(0.000342176676692 -1.01146973591e-05 0)
(0.000354363846331 -1.09187396384e-05 0)
(0.000367459055311 -1.17323850288e-05 0)
(0.000381461346776 -1.25445122358e-05 0)
(0.000396355039815 -1.33406576617e-05 0)
(0.000412106065523 -1.41028052092e-05 0)
(0.000428658242632 -1.48093761193e-05 0)
(0.000445929746166 -1.54354934412e-05 0)
(0.000463810087253 -1.59535806426e-05 0)
(0.000482157961942 -1.63343210847e-05 0)
(0.000500800326708 -1.65479581873e-05 0)
(0.000519533010059 -1.65658658446e-05 0)
(0.000538123077576 -1.63622807294e-05 0)
(0.000556313048971 -1.59160748614e-05 0)
(0.000573826943229 -1.52124576747e-05 0)
(0.000590378016427 -1.42445144225e-05 0)
(0.000605677952967 -1.30144886507e-05 0)
(0.000619447156359 -1.15346910154e-05 0)
(0.00063142564524 -9.82788031279e-06 0)
(0.000641383898979 -7.92694177922e-06 0)
(0.000649132840621 -5.87369944124e-06 0)
(0.000654532032798 -3.71675995174e-06 0)
(0.000657495158136 -1.50843597365e-06 0)
(0.000657992052189 6.98934264891e-07 0)
(0.000656047021494 2.85664577954e-06 0)
(0.000651733853367 4.92248003162e-06 0)
(0.000645168549237 6.86223191921e-06 0)
(0.00063650113266 8.64977662913e-06 0)
(0.000625907796025 1.02660026057e-05 0)
(0.000613584197668 1.16972528579e-05 0)
(0.000599740122817 1.29339062484e-05 0)
(0.000584595234204 1.39694894676e-05 0)
(0.000568375399733 1.48004091577e-05 0)
(0.000551309092831 1.54261677628e-05 0)
(0.000533623529875 1.58498193772e-05 0)
(0.000515540440981 1.60784087463e-05 0)
(0.000497271593202 1.61231803809e-05 0)
(0.000479014354096 1.59994212913e-05 0)
(0.000460947671208 1.57258961355e-05 0)
(0.000443228838419 1.53239297949e-05 0)
(0.000425991332032 1.48162674045e-05 0)
(0.000409343856785 1.42258773052e-05 0)
(0.0003933705844 1.35748541075e-05 0)
(0.000378132432076 1.28835372515e-05 0)
(0.000363669139456 1.21699038635e-05 0)
(0.000350001866713 1.14492409901e-05 0)
(0.000337136046291 1.07340629694e-05 0)
(0.000325064261823 1.0034218253e-05 0)
(0.000313768983656 9.35712442943e-06 0)
(0.000303225048333 8.7080755013e-06 0)
(0.000293401820594 8.09057654459e-06 0)
(0.000284265016953 7.50667353094e-06 0)
(0.000275778198649 6.95725780601e-06 0)
(0.000267903960089 6.44233416589e-06 0)
(0.000260604848672 5.96124839654e-06 0)
(0.000253844055565 5.5128747224e-06 0)
(0.000247585916511 5.09576634301e-06 0)
(0.000241796258746 4.70827359615e-06 0)
(0.000236442625902 4.34863474105e-06 0)
(0.000231494408002 4.01504423903e-06 0)
(0.000226922899062 3.70570299098e-06 0)
(0.000222701300455 3.41885443177e-06 0)
(0.00021880468443 3.15280980161e-06 0)
(0.000215209928864 2.90596536532e-06 0)
(0.000211895631534 2.67681388109e-06 0)
(0.000208842009854 2.46395222925e-06 0)
(0.000206030789989 2.26608682505e-06 0)
(0.000203445087562 2.08203823557e-06 0)
(0.000201069280578 1.91074632837e-06 0)
(0.000198888873735 1.75127727273e-06 0)
(0.000196890351817 1.60283383957e-06 0)
(0.00019506101825 1.46477068629e-06 0)
(0.000193388813118 1.33661674646e-06 0)
(0.000191862102779 1.21810748343e-06 0)
(0.000190469430696 1.10923075378e-06 0)
(0.000189199216018 1.01029144225e-06 0)
(0.000188039383093 9.22002136282e-07 0)
(0.000186976901844 8.45610092793e-07 0)
(0.000185997217646 7.83074893879e-07 0)
(0.000185083554482 7.37316097369e-07 0)
(0.000184216098725 7.1255333943e-07 0)
(0.000183371143169 7.14751435285e-07 0)
(0.000182520468777 7.52117932891e-07 0)
(0.000181631766385 8.35321510513e-07 0)
(0.000180672217234 9.75985780169e-07 0)
(0.000179621295765 1.1771186068e-06 0)
(0.000178497071822 1.38004400845e-06 0)
(0.00122478026009 0.000267950854301 0)
(0.00124108116457 0.000383713748368 0)
(0.00119618285215 0.000347831300132 0)
(0.00111343075887 0.00028409011577 0)
(0.00102044742663 0.000225561145647 0)
(0.000930933682042 0.000178479431372 0)
(0.000850318940632 0.000142063797966 0)
(0.000779996132786 0.000114117327057 0)
(0.000719595635036 9.25607754753e-05 0)
(0.000668091152888 7.57553020544e-05 0)
(0.000624303836355 6.24850685262e-05 0)
(0.000587113641002 5.18658801313e-05 0)
(0.000555534280873 4.32562536704e-05 0)
(0.000528727805899 3.61879173144e-05 0)
(0.000505994693443 3.03154443727e-05 0)
(0.00048675582539 2.53808035986e-05 0)
(0.000470533434998 2.11886342198e-05 0)
(0.00045693379207 1.75889844979e-05 0)
(0.000445632457249 1.44651842052e-05 0)
(0.000436362117101 1.172524468e-05 0)
(0.00042890270655 9.29569398109e-06 0)
(0.00042307344733 7.11710623629e-06 0)
(0.000418726446633 5.14082126251e-06 0)
(0.000415741547925 3.32650960538e-06 0)
(0.000414022179616 1.64034530095e-06 0)
(0.000413491996208 5.3621321224e-08 0)
(0.000414092147217 -1.45830746146e-06 0)
(0.000415779040722 -2.91683115516e-06 0)
(0.000418522496275 -4.34070815508e-06 0)
(0.000422304201016 -5.74654144182e-06 0)
(0.00042711639392 -7.1491312621e-06 0)
(0.00043296071315 -8.5617237525e-06 0)
(0.0004398471476 -9.99616672187e-06 0)
(0.000447793036672 -1.14629777422e-05 0)
(0.000456822062806 -1.2971324885e-05 0)
(0.000466963179824 -1.45289166986e-05 0)
(0.000478249417217 -1.61417951918e-05 0)
(0.000490716496878 -1.78140240279e-05 0)
(0.000504401195332 -1.95472641866e-05 0)
(0.000519339382558 -2.13402318915e-05 0)
(0.00053556366987 -2.31880394913e-05 0)
(0.000553100606367 -2.50814304945e-05 0)
(0.000571967379084 -2.70059360864e-05 0)
(0.000592167999512 -2.89410029573e-05 0)
(0.000613689001674 -3.08591705599e-05 0)
(0.000636494736703 -3.27254076486e-05 0)
(0.000660522425599 -3.44967477095e-05 0)
(0.000685677221428 -3.61223821658e-05 0)
(0.000711827624982 -3.75443679755e-05 0)
(0.000738801678126 -3.86990719561e-05 0)
(0.000766384406746 -3.95194031593e-05 0)
(0.000794316980916 -3.99377840254e-05 0)
(0.000822297992348 -3.98897032102e-05 0)
(0.000849987123077 -3.93176101226e-05 0)
(0.000877011316685 -3.81748798291e-05 0)
(0.000902973395498 -3.64295968117e-05 0)
(0.000927462915705 -3.40679423045e-05 0)
(0.000950068914557 -3.10969733117e-05 0)
(0.000970394055134 -2.75465320108e-05 0)
(0.000988069495147 -2.34699554652e-05 0)
(0.00100276960647 -1.89432255545e-05 0)
(0.0010142254868 -1.40622390999e-05 0)
(0.00102223607627 -8.93801185624e-06 0)
(0.0010266756858 -3.68993787838e-06 0)
(0.00102749697827 1.56222150304e-06 0)
(0.00102472902696 6.7063034587e-06 0)
(0.00101847094589 1.16440262097e-05 0)
(0.00100888241413 1.62944690706e-05 0)
(0.000996172846877 2.05944647101e-05 0)
(0.000980590851487 2.44965831218e-05 0)
(0.000962415016993 2.7966038093e-05 0)
(0.000941946318167 3.09778249928e-05 0)
(0.000919501805655 3.35149005546e-05 0)
(0.000895408969774 3.55675964607e-05 0)
(0.00087000018856 3.71339968138e-05 0)
(0.000843606882181 3.82207888814e-05 0)
(0.000816553276036 3.88440651736e-05 0)
(0.000789149941964 3.90296389408e-05 0)
(0.000761687490568 3.88125890729e-05 0)
(0.000734430893929 3.82359467549e-05 0)
(0.000707614910379 3.73486376492e-05 0)
(0.000681440970029 3.62029517984e-05 0)
(0.000656075697436 3.48518896669e-05 0)
(0.000631651046477 3.33467173562e-05 0)
(0.000608265849981 3.1734978321e-05 0)
(0.000585988472526 3.00590914202e-05 0)
(0.000564860207486 2.83555526082e-05 0)
(0.000544899069421 2.66546738228e-05 0)
(0.000526103682163 2.49807454407e-05 0)
(0.000508457031644 2.33524943035e-05 0)
(0.000491929924754 2.17837180124e-05 0)
(0.000476484060659 2.02839975805e-05 0)
(0.000462074673704 1.88594161098e-05 0)
(0.00044865274585 1.75132354929e-05 0)
(0.000436166812553 1.62465033438e-05 0)
(0.000424564401326 1.5058577607e-05 0)
(0.000413793149499 1.39475667849e-05 0)
(0.000403801649326 1.29106903324e-05 0)
(0.000394540066527 1.19445673889e-05 0)
(0.000385960574256 1.10454436133e-05 0)
(0.000378017639246 1.02093661101e-05 0)
(0.00037066819149 9.43231590677e-06 0)
(0.000363871703477 8.71030647448e-06 0)
(0.000357590200142 8.03945570921e-06 0)
(0.000351788216345 7.41603768032e-06 0)
(0.000346432714897 6.83651949784e-06 0)
(0.000341492974885 6.29758778921e-06 0)
(0.000336940457221 5.79616865048e-06 0)
(0.000332748651906 5.32944442694e-06 0)
(0.000328892909349 4.89487042427e-06 0)
(0.00032535025613 4.49019450709e-06 0)
(0.000322099193827 4.1134826721e-06 0)
(0.000319119477797 3.76315392754e-06 0)
(0.000316391871237 3.43802836266e-06 0)
(0.000313897868383 3.13739296828e-06 0)
(0.000311619379683 2.86109075888e-06 0)
(0.000309538371607 2.60963975506e-06 0)
(0.000307636455476 2.38438936436e-06 0)
(0.000305894425375 2.18772168946e-06 0)
(0.00030429175877 2.02330264376e-06 0)
(0.000302806122584 1.89637740119e-06 0)
(0.000301412986807 1.81407454056e-06 0)
(0.000300085564448 1.78560051124e-06 0)
(0.000298795519192 1.82198239129e-06 0)
(0.000297515277971 1.93439620841e-06 0)
(0.000296223420702 2.12831470197e-06 0)
(0.000294914343983 2.38478648849e-06 0)
(0.000293605524498 2.60541905361e-06 0)
(0.0012219252171 0.00022124537915 0)
(0.00125338043808 0.000382663104123 0)
(0.00125104560657 0.000396115096046 0)
(0.0012133573862 0.000356246640619 0)
(0.00115534032852 0.000304405017377 0)
(0.00108939843196 0.000255091207199 0)
(0.00102300494919 0.000212460252587 0)
(0.000960120040666 0.000176928594997 0)
(0.000902568380416 0.000147701671666 0)
(0.000850969705774 0.000123717568696 0)
(0.000805303605705 0.000103976224395 0)
(0.000765235617494 8.76329135486e-05 0)
(0.00073029898865 7.40052147081e-05 0)
(0.000699992408772 6.25520163166e-05 0)
(0.000673830005991 5.2846865452e-05 0)
(0.000651364797437 4.45534635804e-05 0)
(0.000632197734424 3.74054316619e-05 0)
(0.000615979199717 3.11903682337e-05 0)
(0.000602406776277 2.57375617592e-05 0)
(0.000591221378136 2.09086078943e-05 0)
(0.000582202858879 1.65902624752e-05 0)
(0.000575165668242 1.26889888912e-05 0)
(0.000569954826399 9.12678181394e-06 0)
(0.000566442322223 5.83795196072e-06 0)
(0.000564523955693 2.76663715773e-06 0)
(0.000564116601035 -1.35133742667e-07 0)
(0.000565155846008 -2.908950287e-06 0)
(0.000567593953986 -5.59119232954e-06 0)
(0.000571398097685 -8.21394932059e-06 0)
(0.000576548811959 -1.08057228964e-05 0)
(0.000583038610645 -1.33919454495e-05 0)
(0.000590870715703 -1.59953382656e-05 0)
(0.000600057846521 -1.86361221422e-05 0)
(0.00061062101577 -2.13320854365e-05 0)
(0.000622588275627 -2.40985079584e-05 0)
(0.000635993354516 -2.69479341279e-05 0)
(0.000650874120278 -2.98897851517e-05 0)
(0.000667270801297 -3.29297984269e-05 0)
(0.000685223893604 -3.60692834652e-05 0)
(0.000704771680663 -3.93041888419e-05 0)
(0.000725947295334 -4.26239852829e-05 0)
(0.000748775262803 -4.60103880362e-05 0)
(0.000773267482288 -4.94359685328e-05 0)
(0.000799418637456 -5.28627421389e-05 0)
(0.000827201074226 -5.62408644464e-05 0)
(0.000856559252541 -5.9507619236e-05 0)
(0.000887403965796 -6.25869283325e-05 0)
(0.000919606623932 -6.5389643478e-05 0)
(0.000952994003107 -6.78148753184e-05 0)
(0.000987343958792 -6.97525574317e-05 0)
(0.00102238265587 -7.10873256374e-05 0)
(0.00105778386456 -7.17036252087e-05 0)
(0.00109317078845 -7.14917770925e-05 0)
(0.00112812073512 -7.03545928113e-05 0)
(0.00116217273843 -6.82140732966e-05 0)
(0.00119483803857 -6.50177622663e-05 0)
(0.00122561315214 -6.07443921325e-05 0)
(0.00125399511862 -5.54084727045e-05 0)
(0.00127949835125 -4.90633930319e-05 0)
(0.00130167232062 -4.18024953088e-05 0)
(0.00132011906968 -3.3757542866e-05 0)
(0.00133450934812 -2.50940836043e-05 0)
(0.00134459599549 -1.60034144119e-05 0)
(0.00135022314834 -6.69131569601e-06 0)
(0.00135133005375 2.63537544272e-06 0)
(0.0013479489388 1.17821819954e-05 0)
(0.00134019747341 2.05776532259e-05 0)
(0.00132826744121 2.88793590122e-05 0)
(0.001312411799 3.65747322926e-05 0)
(0.00129293214049 4.35779137174e-05 0)
(0.00127016779936 4.98248246898e-05 0)
(0.00124448685011 5.52686262832e-05 0)
(0.00121627853647 5.98768643593e-05 0)
(0.00118594636716 6.36305767371e-05 0)
(0.001153901201 6.65249034883e-05 0)
(0.00112055392257 6.85704079374e-05 0)
(0.00108630764027 6.97942774038e-05 0)
(0.00105154964007 7.02407061939e-05 0)
(0.00101664355582 6.99700053727e-05 0)
(0.000981922334487 6.90562992581e-05 0)
(0.000947682559192 6.75839978718e-05 0)
(0.00091418055254 6.56434955306e-05 0)
(0.000881630460177 6.33266708689e-05 0)
(0.000850204273139 6.07227370358e-05 0)
(0.000820033544935 5.79148489638e-05 0)
(0.000791212429529 5.49776817834e-05 0)
(0.0007638016164 5.19760108396e-05 0)
(0.000737832755052 4.89641874495e-05 0)
(0.000713313020859 4.59863274605e-05 0)
(0.000690229554011 4.30770053282e-05 0)
(0.000668553585647 4.02622591458e-05 0)
(0.000648244138778 3.75607453039e-05 0)
(0.000629251250976 3.49849218092e-05 0)
(0.000611518709771 3.25421781006e-05 0)
(0.000594986321611 3.02358618626e-05 0)
(0.000579591753521 2.80661783609e-05 0)
(0.000565271996062 2.60309554509e-05 0)
(0.000551964499283 2.41262788525e-05 0)
(0.000539608032302 2.23470089215e-05 0)
(0.000528143313528 2.06871934066e-05 0)
(0.000517513453499 1.91403916263e-05 0)
(0.000507664246818 1.76999250895e-05 0)
(0.000498544344048 1.6359068344e-05 0)
(0.000490105329212 1.5111192317e-05 0)
(0.000482301723718 1.39498707458e-05 0)
(0.000475090933288 1.28689588167e-05 0)
(0.000468433150719 1.18626517357e-05 0)
(0.000462291224093 1.09255299163e-05 0)
(0.000456630497238 1.0052596555e-05 0)
(0.00045141862684 9.2393128417e-06 0)
(0.000446625378541 8.48163563129e-06 0)
(0.000442222402554 7.77606236138e-06 0)
(0.000438182987918 7.11968799415e-06 0)
(0.000434481793422 6.51027907167e-06 0)
(0.00043109455282 5.94637013179e-06 0)
(0.000427997752393 5.42738789814e-06 0)
(0.000425168281102 4.9538079832e-06 0)
(0.000422583058433 4.52734683136e-06 0)
(0.000420218654654 4.15118596448e-06 0)
(0.000418050935729 3.83021281148e-06 0)
(0.000416054795497 3.57123371058e-06 0)
(0.000414204088456 3.3830523644e-06 0)
(0.00041247195662 3.27616958006e-06 0)
(0.000410831857544 3.26155186868e-06 0)
(0.000409259716743 3.34720459864e-06 0)
(0.000407737492986 3.52958477424e-06 0)
(0.000406256882275 3.77320261284e-06 0)
(0.000404814584505 3.96811977077e-06 0)
(0.00121692900772 0.000182391156427 0)
(0.00124907106459 0.000357920055029 0)
(0.00126563632624 0.000406627722569 0)
(0.00125581381158 0.000393244756021 0)
(0.00122538104751 0.000355856730126 0)
(0.00118264909649 0.000312313348154 0)
(0.00113416794702 0.000270112749808 0)
(0.00108431259725 0.000232016361887 0)
(0.00103577013851 0.000198708029467 0)
(0.000990071248926 0.000170008780673 0)
(0.000947998742058 0.000145423624701 0)
(0.000909870104099 0.000124382144493 0)
(0.000875723947691 0.000106338773774 0)
(0.000845439781099 9.08092080961e-05 0)
(0.000818813416762 7.73784447268e-05 0)
(0.000795603545907 6.56969671575e-05 0)
(0.000775559851522 5.54726883776e-05 0)
(0.000758439439281 4.64620607627e-05 0)
(0.000744015959347 3.84617742474e-05 0)
(0.00073208421443 3.13015394071e-05 0)
(0.00072246202831 2.48380365331e-05 0)
(0.000714990493384 1.89499397928e-05 0)
(0.000709533296747 1.35338679522e-05 0)
(0.000705975557412 8.50110701724e-06 0)
(0.000704222437536 3.77496528106e-06 0)
(0.000704197682729 -7.11356559341e-07 0)
(0.000705842175624 -5.01647044693e-06 0)
(0.000709112544658 -9.19215524541e-06 0)
(0.000713979846561 -1.32844390196e-05 0)
(0.000720428316892 -1.73344257441e-05 0)
(0.000728454167784 -2.13789010131e-05 0)
(0.000738064406186 -2.54507358336e-05 0)
(0.000749275637703 -2.95790973439e-05 0)
(0.000762112814123 -3.3789467008e-05 0)
(0.000776607876129 -3.81034599048e-05 0)
(0.000792798236264 -4.253843327e-05 0)
(0.000810725040951 -4.71068687728e-05 0)
(0.000830431144735 -5.18155119863e-05 0)
(0.000851958725558 -5.66642552732e-05 0)
(0.00087534646821 -6.16447586223e-05 0)
(0.000900626245679 -6.67388189288e-05 0)
(0.000927819237656 -7.1916524291e-05 0)
(0.000956931444835 -7.71342683276e-05 0)
(0.000987948590864 -8.23327516242e-05 0)
(0.00102083045462 -8.74351620435e-05 0)
(0.00105550474732 -9.23457974959e-05 0)
(0.00109186074322 -9.6949462163e-05 0)
(0.00112974298548 -0.000101112010937 0)
(0.00116894551107 -0.000104682411383 0)
(0.00120920714925 -0.000107496611815 0)
(0.00125020851995 -0.000109383333486 0)
(0.00129157135855 -0.00011017165709 0)
(0.0013328606992 -0.000109700000409 0)
(0.00137359026183 -0.000107825868035 0)
(0.00141323114509 -0.000104435672944 0)
(0.00145122368929 -9.94539948841e-05 0)
(0.00148699219062 -9.28517627052e-05 0)
(0.0015199620137 -8.46528811113e-05 0)
(0.00154957850259 -7.4938697619e-05 0)
(0.00157532687495 -6.38495269333e-05 0)
(0.00159675201887 -5.15824027602e-05 0)
(0.00161347687003 -3.83843569704e-05 0)
(0.00162521784509 -2.45407732264e-05 0)
(0.00163179565271 -1.03589339048e-05 0)
(0.00163313990993 3.85180735003e-06 0)
(0.00162928672882 1.78000155529e-05 0)
(0.00162036983132 3.12281457588e-05 0)
(0.00160660719327 4.392149478e-05 0)
(0.00158828597778 5.57094083394e-05 0)
(0.00156574826089 6.64605644015e-05 0)
(0.00153937897084 7.60757547333e-05 0)
(0.00150959617458 8.44813904045e-05 0)
(0.0014768429659 9.16255710751e-05 0)
(0.00144157994945 9.74770048702e-05 0)
(0.00140427751122 0.000102026030053 0)
(0.00136540745221 0.000105286570857 0)
(0.00132543395895 0.000107297844291 0)
(0.00128480422414 0.000108124831085 0)
(0.00124393928539 0.000107856862983 0)
(0.00120322578028 0.000106604130442 0)
(0.00116300929015 0.000104492397311 0)
(0.00112358976757 0.000101656593321 0)
(0.00108521926814 9.82341355232e-05 0)
(0.00104810191783 9.43587828671e-05 0)
(0.00101239581185 9.01556127253e-05 0)
(0.000978216400118 8.57374225642e-05 0)
(0.000945640869216 8.12025932367e-05 0)
(0.000914713060361 7.66342558626e-05 0)
(0.000885448538755 7.21004966353e-05 0)
(0.00085783952292 6.76553015404e-05 0)
(0.000831859475095 6.3339962492e-05 0)
(0.000807467233721 5.91847140127e-05 0)
(0.000784610632052 5.52104266266e-05 0)
(0.000763229592951 5.14302377221e-05 0)
(0.000743258720826 4.78510465999e-05 0)
(0.000724629430643 4.44748358059e-05 0)
(0.000707271663771 4.12998060051e-05 0)
(0.000691115243968 3.83213282566e-05 0)
(0.000676090926058 3.55327274678e-05 0)
(0.000662131186476 3.29259159529e-05 0)
(0.000649170800122 3.04918978903e-05 0)
(0.000637147242465 2.82211653123e-05 0)
(0.000626000950383 2.61040048859e-05 0)
(0.000615675469898 2.41307328286e-05 0)
(0.000606117514085 2.22918731541e-05 0)
(0.000597276950078 2.05782924112e-05 0)
(0.000589106730185 1.89813021944e-05 0)
(0.000581562778816 1.74927391502e-05 0)
(0.000574603843979 1.6105030898e-05 0)
(0.000568191319693 1.48112553355e-05 0)
(0.000562289043569 1.36052000633e-05 0)
(0.000556863072198 1.24814282197e-05 0)
(0.000551881435759 1.1435356655e-05 0)
(0.000547313872596 1.04633520984e-05 0)
(0.000543131544595 9.56285039955e-06 0)
(0.000539306735263 8.73250281478e-06 0)
(0.00053581253513 7.97235072478e-06 0)
(0.000532622524073 7.28402493489e-06 0)
(0.000529710468739 6.67095505706e-06 0)
(0.000527050066798 6.13855372271e-06 0)
(0.000524614790267 5.69429985531e-06 0)
(0.000522377908791 5.34756630124e-06 0)
(0.000520312807972 5.10888126355e-06 0)
(0.000518393739981 4.98800175073e-06 0)
(0.000516597078861 4.9895527469e-06 0)
(0.000514902730823 5.10380603935e-06 0)
(0.000513293717608 5.28860410537e-06 0)
(0.000511748248345 5.44048490076e-06 0)
(0.00121284417239 0.000152617978437 0)
(0.00124171911239 0.000326676242041 0)
(0.00126579093986 0.000397234453663 0)
(0.00127212667438 0.000406124811618 0)
(0.00126098326744 0.000384552851579 0)
(0.00123699957603 0.000350332874881 0)
(0.00120500992845 0.000312564025675 0)
(0.00116884464952 0.000275585720135 0)
(0.00113123722057 0.00024128856417 0)
(0.00109402675924 0.000210337601963 0)
(0.00105839171526 0.000182802359068 0)
(0.00102504512915 0.000158478638688 0)
(0.000994381874971 0.000137051694272 0)
(0.000966584760693 0.000118177572122 0)
(0.000941699122415 0.000101522086453 0)
(0.000919684433201 8.67778880608e-05 0)
(0.000900449558495 7.36703384884e-05 0)
(0.000883876549066 6.19578335482e-05 0)
(0.000869836480534 5.1429550393e-05 0)
(0.000858199817274 4.1902171082e-05 0)
(0.000848843032654 3.32163743592e-05 0)
(0.000841652687592 2.52334797733e-05 0)
(0.000836527796903 1.78324121158e-05 0)
(0.000833381052706 1.09070421486e-05 0)
(0.000832139293088 4.36390430011e-06 0)
(0.000832743478521 -1.87973269831e-06 0)
(0.000835148346752 -7.8974631152e-06 0)
(0.000839321861542 -1.37550552965e-05 0)
(0.000845244530338 -1.95115197923e-05 0)
(0.000852908625536 -2.52199218574e-05 0)
(0.000862317322783 -3.09279656126e-05 0)
(0.000873483755666 -3.66783562779e-05 0)
(0.00088642997164 -4.2508939281e-05 0)
(0.000901185762282 -4.84526080779e-05 0)
(0.000917787330805 -5.45369662607e-05 0)
(0.00093627575056 -6.07837245243e-05 0)
(0.000956695159913 -6.720780995e-05 0)
(0.00097909063151 -7.38161650667e-05 0)
(0.00100350564814 -8.06062188036e-05 0)
(0.00102997911426 -8.7564023062e-05 0)
(0.0010585418332 -9.46620699005e-05 0)
(0.00108921238789 -0.000101856838512 0)
(0.00112199238011 -0.000109086171281 0)
(0.0011568610149 -0.000116266646228 0)
(0.00119376906643 -0.000123291198162 0)
(0.00123263233512 -0.000130027336633 0)
(0.00127332480493 -0.000136316400749 0)
(0.00131567183454 -0.000141974354186 0)
(0.00135944385634 -0.000146794623221 0)
(0.0014043511915 -0.000150553378602 0)
(0.00145004068487 -0.000153017433579 0)
(0.00149609487609 -0.000153954587128 0)
(0.00154203431944 -0.000153145852306 0)
(0.00158732344169 -0.000150398696852 0)
(0.00163138003062 -0.000145560310407 0)
(0.00167358816732 -0.000138530031206 0)
(0.00171331422971 -0.000129270282478 0)
(0.00174992549704 -0.000117815444369 0)
(0.00178281077092 -0.000104277890919 0)
(0.00181140219526 -8.88501263138e-05 0)
(0.00183519713934 -7.18018906782e-05 0)
(0.00185377873151 -5.34713161603e-05 0)
(0.00186683338786 -3.4249454807e-05 0)
(0.0018741633646 -1.45580524816e-05 0)
(0.00187569225205 5.17775862065e-06 0)
(0.0018714621164 2.45573517694e-05 0)
(0.00186162284267 4.32269457146e-05 0)
(0.00184641623405 6.08919018336e-05 0)
(0.00182615846248 7.73179454526e-05 0)
(0.00180122405402 9.23241077207e-05 0)
(0.00177203303682 0.000105772472723 0)
(0.00173904112269 0.000117559336692 0)
(0.00170273171989 0.000127610190643 0)
(0.00166360839862 0.000135878678532 0)
(0.0016221868198 0.000142348330654 0)
(0.00157898567764 0.000147035430777 0)
(0.00153451668396 0.000149991433187 0)
(0.00148927400567 0.000151303619899 0)
(0.00144372385616 0.000151093129891 0)
(0.00139829509295 0.000149510102186 0)
(0.0013533716359 0.000146726345844 0)
(0.00130928729279 0.000142926486217 0)
(0.00126632323439 0.000138298778641 0)
(0.00122470800736 0.000133026697496 0)
(0.0011846197004 0.000127282093405 0)
(0.0011461897288 0.000121220309242 0)
(0.00110950767021 0.000114977281462 0)
(0.00107462663713 0.000108668396065 0)
(0.00104156877002 0.000102388732424 0)
(0.00101033054654 9.62142928714e-05 0)
(0.000980887706123 9.02038474721e-05 0)
(0.000953199675254 8.44010894014e-05 0)
(0.000927213443452 7.88368726983e-05 0)
(0.000902866886057 7.35313758483e-05 0)