/*--------------------------------*- C++ -*----------------------------------*\
  =========                 |
  \\      /  F ield         | OpenFOAM: The Open Source CFD Toolbox
   \\    /   O peration     | Website:  https://openfoam.org
    \\  /    A nd           | Version:  7
     \\/     M anipulation  |
\*---------------------------------------------------------------------------*/
FoamFile
{
    version     2.0;
    format      ascii;
    class       volScalarField;
    location    "540";
    object      Ci;
}
// * * * * * * * * * * * * * * * * * * * * * * * * * * * * * * * * * * * * * //

dimensions      [0 -3 0 0 1 0 0];

internalField   nonuniform List<scalar> 
8192
(
9.99999998547
10.0000000475
10.0000000904
10.0000001701
10.0000003588
10.000000651
10.0000009435
10.0000012379
10.0000015409
10.0000018609
10.000002204
10.0000025751
10.0000029761
10.0000034079
10.0000038682
10.0000043547
10.0000048619
10.0000053842
10.0000059127
10.0000064386
10.0000069497
10.0000074345
10.0000078787
10.0000082692
10.0000085908
10.0000088304
10.000008973
10.0000090061
10.0000089158
10.0000086902
10.0000083164
10.0000077835
10.00000708
10.0000061968
10.0000051255
10.0000038611
10.0000024009
10.0000007465
9.99999890424
9.99999688435
9.99999470381
9.99999238251
9.9999899479
9.99998742823
9.99998485945
9.99998227518
9.99997971646
9.9999772183
9.9999748228
9.99997256216
9.99997047562
9.99996858889
9.9999669352
9.99996553113
9.99996440195
9.99996355413
9.99996300482
9.99996274802
9.99996278551
9.99996311304
9.99996373846
9.99996464717
9.99996583892
9.99996728993
9.99996899083
9.99997090875
9.99997302637
9.99997530494
9.999977724
9.99998024498
9.99998285668
9.99998552614
9.99998823564
9.99999095319
9.9999936634
9.99999633824
9.99999896434
10.0000015177
10.0000039867
10.0000063506
10.000008598
10.0000107102
10.0000126757
10.0000144785
10.0000161088
10.0000175552
10.0000188118
10.0000198737
10.0000207403
10.0000214135
10.0000218979
10.0000222016
10.0000223334
10.0000223058
10.0000221307
10.0000218256
10.0000214098
10.0000209269
10.0000204125
10.000019882
10.0000193366
10.000018779
10.0000182059
10.0000176192
10.0000170156
10.0000163978
10.0000157634
10.0000151164
10.0000144553
10.0000137854
10.0000131063
10.000012424
10.0000117392
10.0000110589
10.0000103846
10.0000097238
10.0000090787
10.0000084574
10.0000078623
10.0000073013
10.0000067762
10.0000062937
10.0000058538
10.0000054623
10.0000051199
10.000004836
10.0000046218
10.0000044966
10.0000000548
10.0000000596
10.0000001093
10.0000001983
10.0000003308
10.0000005063
10.0000007162
10.0000009593
10.000001236
10.0000015478
10.0000018949
10.0000022782
10.0000026967
10.0000031496
10.000003634
10.0000041466
10.0000046815
10.0000052323
10.0000057894
10.0000063429
10.00000688
10.0000073881
10.0000078527
10.0000082602
10.0000085958
10.0000088464
10.0000089982
10.0000090393
10.0000089569
10.0000087397
10.0000083758
10.0000078542
10.0000071636
10.0000062946
10.0000052389
10.0000039907
10.0000025481
10.0000009129
9.99999909276
9.99999709982
9.9999949533
9.99999267638
9.9999902995
9.999987855
9.99998538182
9.99998291773
9.9999805058
9.99997818437
9.99997599547
9.99997397284
9.99997215238
9.99997055852
9.99996921681
9.99996813907
9.99996733829
9.99996681297
9.99996656439
9.99996658065
9.99996684899
9.99996735012
9.99996807553
9.99996900827
9.99997014082
9.99997145647
9.99997294718
9.99997459473
9.99997638823
9.99997830582
9.99998033378
9.9999824468
9.99998463241
9.99998687402
9.99998916395
9.99999148717
9.99999383598
9.99999619495
9.99999855416
10.0000008956
10.0000032051
10.0000054608
10.0000076441
10.0000097312
10.0000117023
10.0000135353
10.0000152136
10.0000167209
10.0000180468
10.0000191828
10.0000201258
10.0000208753
10.0000214347
10.0000218104
10.0000220108
10.0000220474
10.0000219315
10.0000216785
10.0000213022
10.0000208726
10.0000204361
10.0000199802
10.0000194984
10.000018991
10.000018456
10.0000178959
10.0000173098
10.0000167011
10.0000160695
10.0000154192
10.000014751
10.0000140697
10.0000133769
10.0000126783
10.0000119759
10.0000112763
10.0000105822
10.0000099005
10.0000092345
10.0000085917
10.0000079752
10.0000073926
10.0000068463
10.0000063427
10.0000058831
10.0000054731
10.0000051162
10.0000048178
10.0000045801
10.0000044206
10.0000000702
10.0000000586
10.0000001428
10.0000002976
10.0000004882
10.000000712
10.0000009706
10.000001261
10.0000015795
10.0000019242
10.0000022926
10.0000026837
10.0000030953
10.0000035265
10.0000039743
10.0000044372
10.0000049107
10.0000053917
10.0000058737
10.0000063513
10.0000068156
10.000007259
10.0000076704
10.0000080401
10.0000083555
10.0000086057
10.0000087772
10.0000088587
10.000008837
10.0000087012
10.0000084394
10.0000080425
10.0000075017
10.0000068114
10.0000059678
10.0000049713
10.0000038253
10.0000025376
10.0000011203
9.99999958901
9.99999796425
9.99999626837
9.99999452854
9.99999277087
9.99999102635
9.99998932132
9.99998768685
9.99998614599
9.99998472636
9.99998344461
9.99998232209
9.9999813669
9.99998059233
9.9999799969
9.99997958545
9.99997934748
9.99997928049
9.99997936738
9.99997960018
9.99997995695
9.99998042827
9.99998099268
9.9999816434
9.999982363
9.99998314921
9.99998398937
9.99998488525
9.99998582817
9.99998682316
9.99998786475
9.99998895992
9.99999010679
9.99999131459
9.99999258346
9.99999392227
9.99999533079
9.99999681491
9.99999837109
9.99999999865
10.0000016871
10.0000034263
10.0000051972
10.0000069802
10.0000087502
10.0000104824
10.0000121504
10.0000137295
10.000015197
10.000016533
10.0000177222
10.0000187517
10.000019615
10.0000203066
10.0000208282
10.0000211809
10.0000213731
10.0000214092
10.0000213134
10.0000211129
10.000020827
10.0000204641
10.000020035
10.0000195436
10.0000189991
10.0000184042
10.0000177677
10.0000170922
10.0000163863
10.0000156526
10.0000148997
10.0000141302
10.0000133525
10.0000125695
10.0000117896
10.0000110157
10.0000102564
10.0000095148
10.0000087994
10.0000081133
10.000007465
10.0000068571
10.0000062968
10.0000057853
10.0000053285
10.0000049321
10.0000046008
10.0000043339
10.0000041492
10.0000000705
10.0000000565
10.0000001685
10.0000003722
10.0000006213
10.0000008961
10.0000011905
10.0000015216
10.0000018881
10.0000022873
10.0000027157
10.00000317
10.0000036464
10.0000041417
10.0000046515
10.0000051721
10.0000056986
10.0000062264
10.0000067497
10.0000072626
10.0000077582
10.0000082293
10.0000086676
10.0000090649
10.0000094116
10.0000096987
10.0000099165
10.0000100559
10.0000101076
10.0000100636
10.0000099167
10.0000096613
10.0000092931
10.000008811
10.0000082147
10.0000075088
10.0000066975
10.0000057919
10.0000048009
10.0000037413
10.0000026265
10.0000014767
10.000000309
9.99999914453
9.99999800237
9.99999690172
9.99999586126
9.99999489645
9.99999402272
9.99999325037
9.99999258954
9.99999204429
9.99999161842
9.99999130935
9.99999111448
9.99999102525
9.99999103395
9.99999112807
9.99999129691
9.99999152577
9.99999180248
9.99999211232
9.99999244476
9.99999278803
9.99999313453
9.99999347554
9.99999380694
9.99999412455
9.99999442989
9.99999472524
9.99999501878
9.99999531881
9.99999563828
9.99999598876
9.99999638513
9.99999683964
9.99999736651
9.99999797602
9.99999867863
9.99999947925
10.000000381
10.0000013807
10.0000024721
10.000003643
10.0000048786
10.0000061594
10.0000074643
10.0000087699
10.000010053
10.0000112907
10.0000124614
10.000013546
10.000014528
10.0000153942
10.0000161343
10.0000167421
10.0000172129
10.000017548
10.0000177533
10.0000178378
10.0000178087
10.0000176751
10.0000174439
10.000017124
10.0000167225
10.0000162487
10.0000157097
10.0000151151
10.0000144723
10.0000137906
10.0000130773
10.0000123417
10.0000115908
10.0000108336
10.0000100769
10.0000093294
10.0000085976
10.00000789
10.0000072127
10.0000065739
10.0000059792
10.0000054356
10.0000049481
10.0000045206
10.0000041598
10.0000038676
10.0000036429
10.0000035501
10.000000074
10.0000000564
10.000000185
10.0000004231
10.0000007137
10.0000010276
10.0000013582
10.0000016999
10.0000020771
10.0000024903
10.0000029369
10.0000034138
10.000003917
10.0000044427
10.0000049861
10.0000055425
10.0000061062
10.0000066717
10.0000072324
10.000007782
10.0000083132
10.0000088189
10.0000092913
10.0000097226
10.000010105
10.0000104307
10.0000106921
10.000010882
10.0000109942
10.0000110229
10.0000109636
10.0000108136
10.0000105703
10.0000102361
10.0000098093
10.0000092997
10.0000087052
10.0000080445
10.0000073143
10.0000065408
10.0000057209
10.0000048841
10.0000040304
10.0000031866
10.0000023578
10.0000015643
10.0000008152
10.0000001237
9.99999949937
9.99999894959
9.99999848117
9.99999809669
9.99999779876
9.9999975852
9.9999974541
9.99999739882
9.99999741373
9.99999748925
9.99999761763
9.99999778731
9.99999798858
9.9999982086
9.99999843795
9.99999866508
9.99999888108
9.99999907425
9.99999923657
9.99999935965
9.99999944069
9.99999947844
9.99999947808
9.99999944611
9.99999939364
9.99999933157
9.99999927401
9.99999923421
9.99999922739
9.99999926718
9.99999936746
9.99999953937
9.99999979256
10.0000001332
10.0000005648
10.0000010873
10.0000016971
10.0000023873
10.0000031475
10.0000039648
10.0000048235
10.0000057069
10.0000065965
10.0000074746
10.0000083232
10.0000091262
10.0000098682
10.000010537
10.0000111214
10.0000116139
10.0000120089
10.0000123048
10.0000125008
10.0000125993
10.0000126026
10.0000125157
10.0000123432
10.0000120921
10.0000117687
10.0000113812
10.0000109369
10.000010445
10.0000099133
10.0000093513
10.0000087669
10.0000081696
10.0000075673
10.0000069691
10.0000063826
10.0000058167
10.0000052785
10.0000047763
10.0000043169
10.000003907
10.0000035539
10.0000032592
10.0000030361
10.0000028701
10.0000027935
10.0000027761
10.0000000758
10.0000000588
10.000000199
10.0000004635
10.0000007865
10.0000011318
10.0000014879
10.0000018548
10.0000022301
10.0000026377
10.0000030783
10.0000035492
10.0000040466
10.0000045666
10.0000051045
10.0000056556
10.0000062142
10.0000067747
10.0000073305
10.0000078752
10.0000084018
10.0000089032
10.0000093723
10.0000098017
10.0000101847
10.0000105142
10.0000107843
10.0000109887
10.000011123
10.0000111826
10.0000111646
10.0000110682
10.0000108897
10.0000106368
10.0000103003
10.000009903
10.0000094229
10.0000089047
10.0000083083
10.0000077014
10.000007028
10.0000063696
10.000005667
10.0000049962
10.0000043128
10.0000036703
10.0000030475
10.0000024726
10.0000019423
10.0000014683
10.0000010541
10.0000007045
10.0000004227
10.0000002095
10.0000000649
9.99999998636
9.99999997038
10.0000000118
10.000000105
10.0000002427
10.000000416
10.0000006149
10.0000008294
10.0000010495
10.0000012634
10.0000014575
10.0000016184
10.0000017348
10.0000017986
10.0000018069
10.0000017617
10.0000016686
10.0000015359
10.0000013726
10.0000011894
10.000000997
10.0000008075
10.0000006323
10.0000004834
10.000000371
10.0000003051
10.0000002932
10.000000342
10.0000004555
10.0000006364
10.0000008842
10.0000011969
10.0000015693
10.0000019947
10.0000024638
10.0000029661
10.0000034896
10.0000040221
10.0000045507
10.0000050632
10.0000055479
10.0000059941
10.0000063928
10.0000067362
10.0000070185
10.0000072358
10.0000073857
10.0000074675
10.0000074821
10.0000074314
10.0000073188
10.0000071484
10.0000069257
10.0000066564
10.0000063471
10.0000060045
10.0000056363
10.0000052496
10.0000048523
10.0000044518
10.0000040559
10.000003672
10.0000033075
10.0000029696
10.000002665
10.000002401
10.0000021818
10.0000020179
10.0000019026
10.0000018647
10.0000018514
10.0000019895
10.0000019947
10.0000000787
10.000000062
10.000000206
10.0000004886
10.0000008386
10.0000012118
10.0000015923
10.0000019782
10.0000023709
10.0000027724
10.0000032024
10.0000036601
10.000004142
10.000004644
10.0000051615
10.0000056896
10.0000062231
10.0000067564
10.0000072837
10.0000077984
10.0000082946
10.0000087654
10.0000092048
10.0000096058
10.0000099632
10.0000102701
10.0000105227
10.0000107148
10.0000108441
10.0000109067
10.0000108999
10.0000108266
10.0000106777
10.000010473
10.000010183
10.0000098634
10.0000094409
10.0000090329
10.0000084963
10.0000080298
10.0000074111
10.0000069104
10.0000062563
10.0000057371
10.0000050993
10.0000045763
10.0000039962
10.0000034952
10.0000029957
10.0000025531
10.0000021493
10.0000018008
10.000001509
10.0000012786
10.0000011114
10.0000010076
10.0000009653
10.0000009818
10.0000010536
10.0000011752
10.0000013389
10.0000015344
10.0000017522
10.0000019824
10.000002212
10.0000024238
10.0000026012
10.0000027302
10.0000028014
10.0000028113
10.000002763
10.000002664
10.0000025226
10.0000023481
10.0000021478
10.0000019305
10.0000017063
10.0000014847
10.000001274
10.0000010819
10.0000009143
10.0000007767
10.000000673
10.0000006067
10.000000581
10.0000005981
10.0000006583
10.0000007606
10.0000009023
10.0000010794
10.0000012866
10.0000015174
10.0000017646
10.0000020205
10.0000022769
10.0000025263
10.0000027609
10.000002974
10.0000031595
10.0000033125
10.0000034291
10.0000035066
10.0000035436
10.0000035396
10.0000034955
10.0000034129
10.0000032946
10.000003144
10.0000029653
10.0000027631
10.0000025427
10.0000023096
10.0000020695
10.0000018284
10.0000015923
10.0000013673
10.0000011592
10.0000009737
10.0000008171
10.0000006937
10.0000006112
10.0000005691
10.000000583
10.0000006323
10.0000007708
10.000000888
10.0000012355
10.0000012546
10.0000000788
10.0000000662
10.0000002123
10.0000005058
10.0000008752
10.0000012711
10.0000016734
10.0000020773
10.0000024854
10.0000028968
10.0000033211
10.0000037688
10.0000042374
10.0000047228
10.0000052203
10.0000057249
10.0000062319
10.0000067355
10.0000072307
10.0000077116
10.0000081727
10.0000086079
10.0000090123
10.0000093796
10.0000097058
10.0000099851
10.0000102144
10.0000103896
10.0000105073
10.0000105683
10.0000105641
10.0000105096
10.000010377
10.0000102174
10.0000099519
10.0000097118
10.0000093084
10.0000090257
10.0000084818
10.0000081972
10.0000075248
10.0000072599
10.0000065033
10.0000062409
10.0000054791
10.000005174
10.0000044931
10.0000041222
10.0000035658
10.0000031678
10.0000027387
10.0000023878
10.0000020774
10.000001829
10.0000016407
10.0000015153
10.0000014526
10.0000014509
10.0000015087
10.0000016234
10.0000017876
10.0000019917
10.000002225
10.0000024799
10.0000027397
10.0000029819
10.0000031836
10.0000033281
10.0000034024
10.000003404
10.0000033395
10.0000032206
10.0000030562
10.0000028587
10.0000026392
10.0000024074
10.0000021726
10.0000019427
10.0000017241
10.0000015212
10.0000013373
10.0000011741
10.0000010332
10.0000009147
10.0000008197
10.0000007478
10.000000699
10.0000006721
10.0000006684
10.0000006857
10.0000007214
10.0000007716
10.0000008324
10.0000008993
10.0000009678
10.0000010332
10.0000010911
10.0000011374
10.0000011687
10.0000011819
10.000001175
10.0000011464
10.0000010955
10.0000010226
10.0000009285
10.0000008149
10.000000684
10.0000005388
10.0000003825
10.000000219
10.0000000522
9.99999988672
9.99999972676
9.99999957703
9.99999944204
9.99999932636
9.99999923457
9.99999917062
9.99999913965
9.99999914351
9.99999919053
9.9999992747
9.99999941826
9.9999995837
9.99999985388
10.0000000578
10.0000005607
10.0000005936
10.0000000799
10.000000071
10.0000002135
10.0000005105
10.0000008935
10.0000013084
10.0000017305
10.0000021524
10.0000025744
10.0000030002
10.0000034259
10.0000038701
10.0000043316
10.0000048063
10.0000052895
10.0000057764
10.0000062621
10.0000067415
10.0000072098
10.0000076619
10.0000080927
10.0000084977
10.0000088714
10.0000092111
10.0000095096
10.0000097686
10.0000099761
10.0000101437
10.0000102474
10.0000103194
10.0000103087
10.0000102901
10.0000101547
10.0000100636
10.0000097891
10.000009662
10.0000092227
10.0000091194
10.0000084746
10.0000084729
10.0000075792
10.0000077401
10.0000065943
10.000006894
10.0000055977
10.0000058987
10.0000046804
10.0000047985
10.0000038693
10.0000037324
10.0000031368
10.0000028579
10.0000024987
10.0000022476
10.0000020407
10.0000019012
10.000001824
10.0000018077
10.0000018565
10.0000019706
10.0000021457
10.0000023696
10.000002629
10.0000029138
10.0000032025
10.000003464
10.0000036728
10.0000038135
10.0000038721
10.0000038489
10.0000037487
10.0000035895
10.0000033879
10.0000031569
10.0000029087
10.0000026549
10.0000024055
10.000002169
10.0000019508
10.0000017538
10.0000015784
10.0000014243
10.0000012897
10.0000011732
10.0000010726
10.0000009859
10.0000009108
10.0000008451
10.000000787
10.0000007343
10.0000006858
10.0000006423
10.0000006011
10.0000005595
10.0000005147
10.0000004642
10.0000004057
10.0000003372
10.0000002572
10.0000001647
10.0000000591
9.99999994036
9.9999998092
9.99999966663
9.99999951438
9.99999935444
9.99999918946
9.99999902221
9.999998856
9.99999869414
9.99999854032
9.99999839812
9.99999827138
9.99999816366
9.99999807877
9.99999801995
9.99999799107
9.99999799435
9.99999803475
9.9999981112
9.99999823387
9.99999839017
9.99999861089
9.99999884022
9.99999919056
9.99999943661
10.0000000326
10.0000000697
10.000000079
10.0000000761
10.0000002171
10.000000513
10.0000009027
10.0000013308
10.0000017688
10.000002207
10.0000026432
10.0000030818
10.0000035175
10.0000039639
10.0000044241
10.0000048944
10.0000053703
10.0000058467
10.0000063188
10.0000067822
10.0000072317
10.0000076642
10.0000080728
10.0000084579
10.0000088083
10.0000091325
10.0000094081
10.0000096623
10.0000098474
10.0000100293
10.0000101071
10.000010224
10.0000101752
10.0000102464
10.0000100465
10.0000101067
10.0000097225
10.0000098255
10.0000092083
10.0000094356
10.0000085059
10.0000089802
10.0000076068
10.0000084737
10.0000065063
10.0000078947
10.0000053294
10.0000071331
10.0000043079
10.0000060533
10.0000036194
10.0000047178
10.0000031817
10.000003468
10.0000027613
10.0000026194
10.0000023285
10.0000021741
10.0000020665
10.000002028
10.0000020504
10.0000021612
10.0000023656
10.0000026275
10.0000028894
10.0000031138
10.0000032843
10.0000034072
10.0000035095
10.0000036098
10.0000036956
10.0000037343
10.0000037095
10.0000036233
10.0000034793
10.0000032847
10.0000030539
10.0000028041
10.0000025524
10.0000023125
10.0000020936
10.0000018995
10.0000017309
10.0000015854
10.0000014604
10.0000013522
10.0000012581
10.0000011748
10.0000010997
10.0000010294
10.0000009607
10.0000008905
10.0000008156
10.0000007347
10.0000006445
10.0000005481
10.0000004439
10.00000033
10.0000002057
10.0000000702
9.9999999235
9.9999997655
9.99999959706
9.99999941901
9.999999233
9.99999904073
9.99999884465
9.99999864724
9.99999845155
9.99999826062
9.99999807785
9.99999790659
9.99999775033
9.99999761242
9.99999749626
9.99999740494
9.99999734166
9.99999730891
9.99999731001
9.99999734591
9.99999742166
9.9999975335
9.99999769408
9.99999788393
9.99999814344
9.99999839845
9.99999878965
9.99999904523
9.99999968665
9.99999971679
10.0000000804
10.0000000781
10.0000002117
10.0000005031
10.000000897
10.0000013362
10.0000017887
10.0000022422
10.0000026928
10.000003144
10.0000035915
10.0000040451
10.0000045093
10.000004981
10.0000054553
10.0000059281
10.0000063933
10.0000068488
10.0000072866
10.0000077087
10.0000081019
10.0000084781
10.0000088102
10.0000091327
10.000009386
10.0000096549
10.0000098081
10.0000100361
10.0000100583
10.000010277
10.0000101211
10.0000103884
10.0000099844
10.0000103877
10.0000096435
10.0000102933
10.0000091061
10.0000101186
10.0000083817
10.000009859
10.0000074237
10.0000095632
10.000006175
10.0000093298
10.000004617
10.0000091345
10.0000030022
10.0000086077
10.0000019412
10.0000072362
10.000001862
10.000005135
10.0000023097
10.0000032945
10.0000024034
10.0000024171
10.0000021975
10.000002102
10.000002099
10.0000023134
10.0000026174
10.0000025916
10.0000017795
10.0000000777
9.99999788304
9.99999588722
9.99999472018
9.99999464846
9.99999551995
9.99999693243
9.99999848414
9.99999988179
10.000000962
10.0000016804
10.0000020793
10.0000022401
10.0000022462
10.0000021665
10.0000020502
10.0000019293
10.000001822
10.0000017361
10.0000016704
10.0000016183
10.0000015697
10.0000015156
10.0000014494
10.000001369
10.0000012749
10.0000011703
10.0000010574
10.0000009391
10.0000008148
10.0000006849
10.0000005466
10.0000004017
10.0000002467
10.0000000795
9.99999989895
9.99999970508
9.99999949894
9.99999928245
9.99999905822
9.99999882934
9.99999859926
9.99999837155
9.99999814991
9.99999793797
9.99999773936
9.99999755749
9.9999973957
9.99999725704
9.9999971445
9.99999706058
9.99999700804
9.99999698846
9.99999700497
9.99999705698
9.99999715041
9.99999727814
9.99999745674
9.99999765856
9.99999793563
9.99999819414
9.99999860346
9.99999884974
9.99999950788
9.99999952476
10.0000000815
10.0000000785
10.0000002127
10.0000004965
10.0000008879
10.0000013323
10.0000017954
10.000002262
10.0000027262
10.0000031904
10.0000036497
10.0000041144
10.0000045871
10.0000050654
10.0000055437
10.000006019
10.0000064838
10.0000069389
10.0000073721
10.0000077928
10.0000081777
10.0000085551
10.0000088746
10.0000092075
10.000009441
10.0000097408
10.0000098569
10.0000101566
10.0000101004
10.0000104709
10.0000101437
10.0000107164
10.0000099501
10.0000109408
10.0000094807
10.0000111901
10.0000087203
10.0000114557
10.0000076805
10.0000116422
10.0000064568
10.0000116533
10.0000051022
10.0000115739
10.0000033937
10.0000118066
10.000000956
10.0000125511
9.99999818387
10.0000127718
9.99999685661
10.0000106222
9.99999840318
10.0000062227
10.0000010465
10.000003059
10.0000017511
10.0000018177
10.0000022814
10.0000031165
10.0000013603
9.99999315966
9.99997610403
9.99995194432
9.99992658796
9.99990714819
9.99989845825
9.99990140746
9.99991344444
9.99993043652
9.99994839592
9.99996449344
9.99997730522
9.99998657967
9.99999278977
9.99999668242
9.99999898114
10.0000002514
10.0000008816
10.0000011189
10.0000011259
10.0000010216
10.000000903
10.0000008438
10.0000008876
10.0000010415
10.000001281
10.0000015604
10.000001828
10.0000020383
10.0000021602
10.0000021793
10.0000020967
10.0000019237
10.0000016789
10.0000013811
10.0000010515
10.0000007062
10.0000003569
10.0000000114
9.99999967552
9.99999935234
9.99999904401
9.99999875152
9.99999847581
9.99999821749
9.99999797757
9.99999775704
9.99999755738
9.99999738005
9.9999972269
9.99999709962
9.99999700029
9.99999693041
9.99999689234
9.99999688661
9.99999691677
9.99999698032
9.9999970853
9.99999722031
9.99999740794
9.99999761045
9.99999789468
9.99999814436
9.99999856047
9.99999878709
9.99999944744
9.99999944755
10.0000000851
10.0000000733
10.0000002059
10.000000481
10.0000008685
10.0000013163
10.0000017883
10.0000022669
10.0000027438
10.0000032212
10.0000036922
10.0000041707
10.0000046553
10.0000051439
10.0000056302
10.000006113
10.0000065826
10.0000070431
10.000007478
10.0000079036
10.0000082872
10.0000086717
10.0000089872
10.0000093339
10.0000095591
10.0000098874
10.0000099845
10.000010343
10.0000102381
10.0000107314
10.0000102766
10.0000111147
10.0000100234
10.0000115995
10.0000093574
10.000012336
10.0000081139
10.0000134292
10.0000061864
10.0000148345
10.0000037703
10.000016136
10.0000014737
10.000016643
9.99999983335
10.0000163268
9.99999807594
10.0000168773
9.99999404184
10.0000200652
9.99998770385
10.0000233022
9.99998474067
10.0000191588
9.99999178121
10.0000077287
9.9999980965
10.0000040907
10.0000068775
9.99999780715
9.99994798249
9.99983501877
9.99965661287
9.99944316968
9.9992477814
9.99912047936
9.99908682323
9.99914229612
9.99926140286
9.99941139604
9.99956273696
9.9996952346
9.99979944873
9.99987459041
9.99992501032
9.99995694103
9.99997634504
9.99998791891
9.99999488195
9.99999916518
10.0000017547
10.0000030646
10.0000032601
10.0000024832
10.0000009566
9.9999989875
9.999996912
9.99999502831
9.99999354699
9.99999257396
9.99999211842
9.99999211906
9.99999247375
9.99999306701
9.99999378986
9.99999455108
9.99999528261
9.99999593927
9.99999649676
9.99999694399
9.99999728127
9.99999751647
9.99999766168
9.99999773109
9.99999773933
9.99999770053
9.99999762778
9.99999753278
9.99999742594
9.9999973161
9.99999721117
9.99999711739
9.99999704082
9.99999698528
9.99999695602
9.99999695394
9.99999698554
9.99999704633
9.99999714909
9.99999727636
9.9999974604
9.99999764955
9.99999793081
9.99999815947
9.99999857479
9.99999877247
9.99999942838
9.99999940621
10.0000000878
10.0000000702
10.0000002023
10.0000004719
10.0000008502
10.0000012955
10.0000017722
10.0000022596
10.0000027488
10.0000032369
10.0000037239
10.0000042178
10.0000047162
10.0000052177
10.0000057156
10.0000062098
10.0000066893
10.0000071599
10.0000076034
10.0000080383
10.0000084302
10.0000088237
10.0000091491
10.0000095049
10.0000097455
10.0000100822
10.0000102059
10.0000105687
10.0000105098
10.0000109985
10.0000106134
10.0000114446
10.00001042
10.0000120571
10.0000097282
10.0000131078
10.0000081322
10.0000150318
10.0000050745
10.0000183488
10.0000001494
10.0000230777
9.9999939637
10.0000276796
9.99998902038
10.0000289807
9.99998817888
10.0000258748
9.99998920393
10.0000246257
9.99998271735
10.000035033
9.99996288366
10.0000528994
9.99995319051
10.0000343326
9.99998415416
10.000036005
9.99998482498
9.99975595545
9.99916719136
9.99815476323
9.99679991645
9.99537135691
9.99421274625
9.99358662367
9.99358203138
9.99411434675
9.99500236633
9.99604480891
9.99706778181
9.99795398944
9.99864972625
9.99915242404
9.99949026632
9.99970318605
9.9998298585
9.99990151102
9.99994074931
9.99996277039
9.99997707669
9.99998893437
10.0000005728
10.0000122501
10.0000232125
10.0000324515
10.0000391919
10.0000431002
10.0000442841
10.0000431699
10.000040348
10.0000364331
10.0000319727
10.0000273963
10.0000230058
10.0000189858
10.0000154276
10.0000123546
10.0000097467
10.0000075605
10.0000057397
10.0000042266
10.0000029679
10.0000019169
10.0000010347
10.0000002898
9.999999658
9.9999991201
9.99999866249
9.99999827428
9.99999794874
9.99999767945
9.99999746415
9.99999729783
9.99999718202
9.99999710998
9.99999708871
9.99999710463
9.99999717653
9.99999727283
9.99999744081
9.99999760399
9.99999787982
9.99999807998
9.99999849753
9.99999866071
9.99999931633
9.99999926587
10.0000000912
10.0000000643
10.0000001857
10.0000004559
10.0000008268
10.000001268
10.0000017469
10.0000022415
10.0000027408
10.0000032403
10.0000037445
10.0000042547
10.0000047683
10.0000052843
10.0000057962
10.0000063041
10.0000067975
10.0000072812
10.0000077392
10.0000081859
10.000008594
10.000008997
10.000009344
10.0000097042
10.0000099793
10.0000103076
10.0000104947
10.0000108172
10.0000108833
10.0000112551
10.000011125
10.0000116688
10.0000111598
10.0000121686
10.0000108158
10.0000129973
10.0000096339
10.0000147768
10.0000066288
10.0000188395
10.0000000252
10.0000271979
9.99998789743
10.00004082
9.99997131863
10.0000551733
9.99995890229
10.0000582307
9.99996272342
10.0000428686
9.99997949284
10.0000263663
9.99997368858
10.0000691467
9.99987471599
10.000149185
9.99996711601
10.0000604398
9.99904962729
9.99666551073
9.99209934436
9.98550461099
9.97769120227
9.97028996346
9.96495639956
9.96270981209
9.96367499011
9.96720026964
9.97231991311
9.97807533296
9.9836513606
9.9884888262
9.99232418319
9.99513760027
9.99706358877
9.99830400648
9.99906117307
9.99950019599
9.99973889176
9.99985489523
9.99989819799
9.99990167316
9.999887396
9.99986975222
9.99985706689
9.99985292612
9.99985757041
9.99986927765
9.99988552522
9.99990380538
9.9999220782
9.99993893688
9.99995358264
9.99996570599
9.99997533792
9.99998271501
9.99998817153
9.99999206718
9.9999947408
9.99999648861
9.99999755561
9.99999813621
9.99999838012
9.99999839941
9.99999827635
9.99999806973
9.99999782169
9.99999756058
9.99999730728
9.99999707369
9.99999687077
9.99999670103
9.99999657241
9.99999648029
9.99999643489
9.99999642278
9.99999646309
9.99999652668
9.99999665361
9.99999678269
9.99999699974
9.99999717539
9.99999749492
9.99999768025
9.99999813575
9.99999825247
9.9999989305
9.99999881351
10.0000000941
10.0000000611
10.0000001763
10.0000004412
10.000000811
10.0000012468
10.0000017218
10.0000022178
10.0000027256
10.0000032402
10.0000037602
10.000004286
10.0000048149
10.000005346
10.0000058738
10.0000063973
10.000006908
10.0000074077
10.0000078847
10.0000083469
10.0000087769
10.0000091934
10.000009568
10.0000099374
10.0000102517
10.0000105794
10.0000108295
10.0000111272
10.0000113067
10.0000115924
10.0000116882
10.0000119885
10.0000119743
10.0000123344
10.0000121242
10.0000126542
10.0000119719
10.0000132074
10.0000109076
10.000015098
10.0000068785
10.0000216847
9.99999470714
10.0000398738
9.99996652047
10.0000758085
9.99992206565
10.000118358
9.99988661499
10.0001303269
9.99990112557
10.0000702392
10.0000118665
9.99992700185
9.99997609792
10.0004673748
9.9996550412
9.99767889252
9.98876280693
9.97292131053
9.94752151172
9.91540137906
9.88090409009
9.8513469652
9.83259766206
9.8274321299
9.8351976732
9.85251333565
9.87546236605
9.90057821895
9.92486212815
9.94614788139
9.96333630754
9.97623655039
9.9852785843
9.99123281967
9.99495628299
9.9972058042
9.99854758803
9.99935172935
9.99983535783
10.000117955
10.0002664751
10.0003232753
10.0003195196
10.0002798403
10.0002232592
10.0001632855
10.0001083606
10.0000627787
10.0000278465
10.0000029977
9.99998669938
9.99997708674
9.99997235447
9.99997095316
9.99997166042
9.99997357145
9.99997605756
9.99997870556
9.99998126491
9.99998359802
9.99998564462
9.99998739138
9.99998885432
9.99999006206
9.99999105192
9.99999185801
9.99999251798
9.99999305755
9.99999351012
9.9999938879
9.99999422329
9.99999451107
9.99999479096
9.99999503277
9.99999529806
9.99999551568
9.99999579453
9.99999599043
9.99999630612
9.99999646224
9.99999684262
9.99999691236
9.99999740342
9.99999729239
9.99999798495
9.99999751727
10.0000000976
10.0000000536
10.0000001571
10.0000004163
10.0000007861
10.0000012239
10.0000017019
10.0000022031
10.0000027183
10.000003243
10.0000037751
10.0000043137
10.0000048565
10.0000054022
10.0000059461
10.000006486
10.0000070153
10.0000075331
10.0000080312
10.0000085121
10.0000089661
10.0000094013
10.0000098039
10.0000101913
10.0000105404
10.0000108849
10.0000111802
10.0000114927
10.0000117318
10.0000120297
10.0000122043
10.0000125094
10.0000126096
10.0000129223
10.00001296
10.0000131647
10.000013355
10.0000129954
10.0000140642
10.0000120965
10.0000150806
10.0000113314
10.0000133349
10.000017764
9.99999524106
10.0000527488
9.99993336716
10.0001407963
9.99982078182
10.0002585334
9.99970059553
10.0003693601
9.99967025029
9.9999418193
10.0009570877
9.99997210215
9.99325401197
9.97180577697
9.92230994409
9.84836240936
9.74416662922