/*--------------------------------*- C++ -*----------------------------------*\
  =========                 |
  \\      /  F ield         | OpenFOAM: The Open Source CFD Toolbox
   \\    /   O peration     | Website:  https://openfoam.org
    \\  /    A nd           | Version:  7
     \\/     M anipulation  |
\*---------------------------------------------------------------------------*/
FoamFile
{
    version     2.0;
    format      ascii;
    class       volScalarField;
    location    "540";
    object      p;
}
// * * * * * * * * * * * * * * * * * * * * * * * * * * * * * * * * * * * * * //

dimensions      [0 2 -2 0 0 0 0];

internalField   nonuniform List<scalar> 
8192
(
0.000690284839274
0.00051875450911
0.000433187831409
0.00038914198428
0.000364191077791
0.000349026721
0.000339226483652
0.000332543547809
0.000327770123958
0.000324222083925
0.00032149240123
0.000319327697783
0.00031756369908
0.000316090032046
0.00031483021998
0.000313729856516
0.00031274934999
0.000311859315635
0.000311037555143
0.000310267018351
0.000309534390504
0.000308829088152
0.000308142528123
0.000307467582062
0.000306798158865
0.000306128875446
0.000305454788381
0.000304771167801
0.000304073298803
0.000303356298401
0.000302614939596
0.000301843475548
0.000301035458445
0.000300183548603
0.000299279310856
0.000298312996683
0.000297273312684
0.000296147178665
0.000294919482235
0.000293572841515
0.000292087393213
0.000290440630112
0.000288607318817
0.000286559535253
0.000284266859038
0.00028169676784
0.000278815264723
0.000275587755489
0.000271980165705
0.000267960253705
0.000263499038372
0.000258572232658
0.000253161562406
0.000247255869743
0.000240851946733
0.000233955112639
0.000226579605714
0.000218748889382
0.00021049595245
0.000201863624432
0.000192904819777
0.000183682472601
0.000174268762502
0.000164743219699
0.000155189569065
0.000145691683183
0.000136329445977
0.000127175399187
0.000118292750343
0.000109734799883
0.000101545384708
9.37597708485e-05
8.64055331576e-05
7.95031797224e-05
7.30664613657e-05
6.71024311313e-05
6.16113938175e-05
5.65869221175e-05
5.2016094312e-05
4.78800439503e-05
4.41548252016e-05
4.08125259019e-05
3.78225153782e-05
3.51527046008e-05
3.27707104105e-05
3.06448471775e-05
2.87449039237e-05
2.70426978124e-05
2.5512418787e-05
2.41307956541e-05
2.28771204255e-05
2.17331682947e-05
2.06830469979e-05
1.97130035763e-05
1.88112105244e-05
1.79675471712e-05
1.71733874668e-05
1.64214008831e-05
1.57053705803e-05
1.50200302286e-05
1.43609199781e-05
1.3724260439e-05
1.31068436565e-05
1.25059390349e-05
1.19192128202e-05
1.13446589859e-05
1.07805402653e-05
1.02253373956e-05
9.67770564249e-06
9.13643701755e-06
8.60042765865e-06
8.06864922775e-06
7.54012432982e-06
7.01390548964e-06
6.48905863949e-06
5.9646520699e-06
5.43975401163e-06
4.91344343264e-06
4.38484336068e-06
3.85319208608e-06
3.31798106858e-06
2.77921162558e-06
2.23787120987e-06
1.69682937883e-06
1.16258029978e-06
6.48818086618e-07
1.85229291971e-07
-8.00349015711e-08
0.000541351525399
0.000477857426813
0.000428210907923
0.000395615273359
0.000373753425926
0.000358629462683
0.000347861502017
0.00033998299958
0.00033406798238
0.000329517898541
0.000325936825003
0.000323056868714
0.00032069274768
0.000318713622495
0.000317025286543
0.000315558678945
0.00031426232446
0.00031309725688
0.000312033542306
0.000311047851978
0.000310121735979
0.000309240372705
0.000308391646296
0.000307565453016
0.000306753169247
0.000305947233917
0.000305140811851
0.000304327515688
0.000303501168355
0.000302655591793
0.000301784412246
0.000300880874286
0.000299937657605
0.000298946692056
0.00029789896804
0.000296784340872
0.000295591329824
0.000294306914943
0.000292916337833
0.000291402916478
0.000289747888669
0.000287930303924
0.000285926988939
0.000283712616541
0.000281259910646
0.000278540019269
0.000275523080958
0.000272178997035
0.000268478400281
0.000264393783801
0.000259900723636
0.000254979105414
0.000249614255067
0.000243797887842
0.000237528826794
0.000230813496731
0.000223666247594
0.000216109584293
0.000208174363799
0.000199899977279
0.000191334461647
0.000182534369566
0.000173564082126
0.000164494208082
0.000155398925657
0.000146352568747
0.000137426138624
0.000128684469954
0.000120184534771
0.000111974921423
0.000104096134487
9.65812421419e-05
8.94565097414e-05
8.27418459535e-05
7.6451024682e-05
7.05917316841e-05
6.51655422751e-05
6.01679681655e-05
5.55886958449e-05
5.14120855429e-05
4.76179294874e-05
4.41824109913e-05
4.10791715334e-05
3.8280386419e-05
3.5757761776e-05
3.34833909368e-05
3.14304359328e-05
2.95736258524e-05
2.78895828275e-05
2.63569988897e-05
2.49566923819e-05
2.3671573477e-05
2.24865458136e-05
2.13883671316e-05
2.03654871624e-05
1.94078764117e-05
1.8506855688e-05
1.7654932779e-05
1.68456504193e-05
1.60734475205e-05
1.53335346361e-05
1.46217833607e-05
1.39346291822e-05
1.32689865404e-05
1.26221751254e-05
1.19918559325e-05
1.13759761003e-05
1.07727211486e-05
1.01804738588e-05
9.59777867648e-06
9.02331121669e-06
8.45585215072e-06
7.89426556082e-06
7.33748169486e-06
6.78448510691e-06
6.23430940031e-06
5.68604145897e-06
5.13883927114e-06
4.59197070339e-06
4.04488438442e-06
3.49733134836e-06
2.94956697606e-06
2.40268235885e-06
1.85914695644e-06
1.32370382943e-06
8.04908771915e-07
3.1717775174e-07
-2.19857120897e-08
0.000458353469994
0.000435713616575
0.000409764507719
0.000388578218904
0.000372510451797
0.00036024835869
0.000350770297715
0.000343347454536
0.000337457250365
0.000332720304872
0.000328858363566
0.000325665540318
0.000322988199382
0.000320710693536
0.0003187451795
0.000317024305556
0.000315495932121
0.000314119295
0.000312862195642
0.00031169892532
0.000310608716609
0.000309574575768
0.000308582392076
0.000307620249527
0.000306677887403
0.000305746269612
0.000304817233696
0.00030388320021
0.000302936925262
0.000301971282412
0.000300979065167
0.00029995280252
0.000298884581884
0.000297765875134
0.00029658736498
0.000295338770355
0.000294008671214
0.000292584335279
0.000291051551734
0.000289394480172
0.000287595526682
0.000285635263527
0.000283492413107
0.000281143921474
0.000278565149045
0.000275730206764
0.000272612460788
0.000269185218741
0.000265422591632
0.000261300501885
0.000256797778977
0.000251897260945
0.000246586806513
0.000240860133367
0.000234717431583
0.000228165756962
0.000221219258997
0.000213899323009
0.000206234688809
0.000198261575353
0.000190023792694
0.000181572722855
0.000172966864704
0.000164270520699
0.000155551390137
0.000146877349981
0.000138313146566
0.000129917759464
0.000121742927898
0.000113832837321
0.000106224539172
9.89485983398e-05
9.20296429765e-05
8.54867073816e-05
7.93333683312e-05
7.35777268593e-05
6.8222333288e-05
6.32641878802e-05
5.86949339683e-05
5.45013045698e-05
5.06658131473e-05
4.71676267469e-05
4.39835315613e-05
4.10888992494e-05
3.84585765869e-05
3.60676457769e-05
3.38920281957e-05
3.19089271211e-05
3.00971209708e-05
2.84371283472e-05
2.69112701206e-05
2.55036537116e-05
2.42001023563e-05
2.29880482832e-05
2.18564050424e-05
2.07954301898e-05
1.97965867148e-05
1.88524085511e-05
1.79563739712e-05
1.71027886134e-05
1.62866793666e-05
1.55036989781e-05
1.47500413744e-05
1.40223667283e-05
1.33177358011e-05
1.26335523335e-05
1.19675129561e-05
1.13175634263e-05
1.06818607986e-05
1.00587405261e-05
9.44668835165e-06
8.84431629446e-06
8.25034297594e-06
7.66357807746e-06
7.08291180529e-06
6.50731000515e-06
5.93581695469e-06
5.36756808129e-06
4.8018168734e-06
4.23798141095e-06
3.67571933158e-06
3.11504333937e-06
2.55649619642e-06
2.0014124841e-06
1.45230511654e-06
9.13335522581e-07
3.89986908917e-07
-5.8944290559e-09
0.00041373443904
0.000405385535448
0.000391238828446
0.000377493333176
0.00036610931184
0.000356873918856
0.000349333306363
0.000343118676827
0.00033795165733
0.000333619613869
0.000329956789366
0.000326832139327
0.000324141221365
0.000321800397461
0.000319742454741
0.000317913194287
0.000316268738178
0.000314773393945
0.000313397959271
0.00031211837536
0.000310914655747
0.000309770031745
0.000308670267574
0.000307603107883
0.000306557828772
0.00030552486692
0.000304495509335
0.000303461631872
0.000302415473107
0.000301349432997
0.000300255890034
0.000299127030915
0.000297954688052
0.000296730181351
0.000295444161817
0.000294086455716
0.000292645909367
0.000291110236397
0.00028946587129
0.000287697835855
0.000285789628404
0.000283723149505
0.000281478682435
0.000279034951089
0.000276369281544
0.000273457895208
0.000270276358656
0.000266800206836
0.000263005739446
0.000258870966108
0.00025437664564
0.000249507336453
0.000244252356957
0.000238606560913
0.000232570868949
0.000226152561971
0.000219365406713
0.00021222971224
0.000204772392763
0.000197027078898
0.000189034303682
0.000180841704452
0.00017250390893
0.000164081507238
0.000155638691751
0.000147239862426
0.000138946111395
0.000130812521123
0.000122886855662
0.000115209579831
0.000107814595571
0.00010073005294
9.39789153696e-05
8.75792480612e-05
8.15442793801e-05
7.58822923877e-05
7.05964494695e-05
6.56847007553e-05
6.11399100102e-05
5.69502595003e-05
5.30999136493e-05
4.95698660075e-05
4.63388706235e-05
4.33843627654e-05
4.06832935946e-05
3.82128310974e-05
3.59509063052e-05
3.38766058768e-05
3.19704263773e-05
3.02144133e-05
2.85922098404e-05
2.70890391621e-05
2.5691640589e-05
2.43881763081e-05
2.31681213455e-05
2.20221461857e-05
2.09419986822e-05
1.99203896444e-05
1.89508849412e-05
1.80278056251e-05
1.71461368721e-05
1.63014457801e-05
1.54898078648e-05
1.47077416578e-05
1.3952150891e-05
1.32202734719e-05
1.25096366815e-05
1.18180178195e-05
1.11434098248e-05
1.04839912252e-05
9.83810012082e-06
9.20421175818e-06
8.58091964691e-06
7.96692006521e-06
7.36100026486e-06
6.76203066527e-06
6.16896191979e-06
5.58082790225e-06
4.99675654504e-06
4.41599110145e-06
3.83792609934e-06
3.26216424716e-06
2.68860397524e-06
2.1175685376e-06
1.54996694278e-06
9.87318661493e-07
4.30718317814e-07
-3.06647728056e-09
0.000386046765222
0.00038412956402
0.00037638035575
0.000367232976844
0.000358991727563
0.000351993376883
0.000346080603602
0.000341047948521
0.000336727052542
0.000332988279258
0.000329730420813
0.00032687227927
0.000324347253313
0.000322099948348
0.000320083934084
0.000318260131099
0.000316595558876
0.00031506231452
0.000313636717667
0.000312298586762
0.000311030624688
0.000309817897063
0.000308647389231
0.00030750762951
0.000306388368949
0.000305280303323
0.000304174832441
0.000303063851494
0.000301939565186
0.000300794318196
0.000299620438547
0.000298410089813
0.000297155128818
0.000295846966163
0.000294476427612
0.000293033615188
0.000291507767821
0.000289887122695
0.000288158780151
0.000286308577326
0.000284320978634
0.000282178995113
0.000279864149097
0.000277356505947
0.000274634799234
0.000271676679343
0.000268459114831
0.000264958969476
0.000261153761932
0.000257022589321
0.00025254716147
0.000247712856782
0.000242509684318
0.000236933037036
0.000230984161378
0.000224670350548
0.000218004958209
0.00021100736687
0.000203703001577
0.000196123434259
0.000188306661716
0.000180297606685
0.000172148481318
0.000163918108762
0.000155669461728
0.000147465767618
0.000139366448781
0.000131424145858
0.000123683563116
0.000116181973241
0.000108950448772
0.00010201493454
9.53968532667e-05
8.91133463698e-05
8.31772628999e-05
7.75969444911e-05
7.23759156091e-05
6.75126699591e-05
6.30007214854e-05
5.88289858469e-05
5.49824545658e-05
5.14430634012e-05
4.8190638429e-05
4.52038149532e-05
4.24608517871e-05
3.99402965158e-05
3.76214873718e-05
3.54848997824e-05
3.35123588992e-05
3.16871448857e-05
2.9994017752e-05
2.84191854086e-05
2.69502343341e-05
2.55760377246e-05
2.42866521234e-05
2.30732101669e-05
2.19278146834e-05
2.0843437366e-05
1.98138240286e-05
1.8833407354e-05
1.78972275589e-05
1.70008608096e-05
1.61403551335e-05
1.53121732387e-05
1.45131417579e-05
1.37404062255e-05
1.29913912888e-05
1.22637655007e-05
1.15554102741e-05
1.08643924444e-05
1.018894014e-05
9.52742153815e-06
8.87832635071e-06
8.24024978058e-06
7.61187898399e-06
6.99198201662e-06
6.3793996158e-06
5.77304025506e-06
5.1718795248e-06
4.57496538491e-06
3.98143204148e-06
3.39052620663e-06
2.80164959873e-06
2.21441308067e-06
1.6286539959e-06
1.04419519514e-06
4.59666790034e-07
-2.30543002048e-09
0.000367636379348
0.000368595843131
0.000364610174449
0.000358522725318
0.000352466773599
0.000347064711062
0.000342367349344
0.000338279960308
0.000334696076784
0.0003315273153
0.00032870438473
0.000326172520991
0.00032388728096
0.0003218116376
0.000319914125498
0.000318167655076
0.000316548715033
0.000315036793126
0.000313613921683
0.000312264299026
0.000310973962145
0.000309730498022
0.000308522786666
0.00030734077134
0.000306175254787
0.000305017710316
0.000303860112493
0.000302694785619
0.000301514262699
0.0003003111525
0.000299078013206
0.000297807230249
0.000296490896122
0.000295120690341
0.000293687757988
0.000292182585845
0.000290594875665
0.000288913415215
0.000287125948962
0.000285219052376
0.000283178016475
0.00028098675314
0.000278627736492
0.000276082001734
0.000273329229097
0.000270347946292
0.000267115885031
0.000263610523067
0.000259809828126
0.000255693192267
0.000251242504275
0.000246443261502
0.000241285583697
0.000235764982445
0.000229882783926
0.00022364621113
0.00021706826321
0.000210167584448
0.000202968428999
0.000195500740397
0.000187800497067
0.000179910587663
0.000171881874574
0.000163773031652
0.00015564784603
0.000147570437038
0.000139600262732
0.000131788649608
0.000124177828593
0.000116802165203
0.000109690116562
0.000102865634595
9.63487779652e-05
9.01558818842e-05
8.42994744871e-05
7.87879364417e-05
7.36250149651e-05
6.88094541242e-05
6.43349665922e-05
6.01906160962e-05
5.63615429783e-05
5.28298999737e-05
4.95758559563e-05
4.65785482974e-05
4.38169020109e-05
4.1270274841e-05
3.89189218841e-05
3.67442970609e-05
3.47292205776e-05
3.28579446628e-05
3.11161471541e-05
2.94908774883e-05
2.79704738326e-05
2.65444649996e-05
2.52034664828e-05
2.39390767859e-05
2.27437778405e-05
2.1610841703e-05
2.05342446089e-05
1.95085887437e-05
1.85290316474e-05
1.75912228782e-05
1.66912474435e-05
1.58255753941e-05
1.49910170086e-05
1.41846829508e-05
1.34039488718e-05
1.26464239068e-05
1.19099226265e-05
1.11924399785e-05
1.04921288769e-05
9.80728006314e-06
9.13630399524e-06
8.47771448789e-06
7.83011398338e-06
7.19218033267e-06
6.56265519496e-06
5.94033427667e-06
5.32406003122e-06
4.71271774048e-06
4.10523630038e-06
3.5005943793e-06
2.8978286149e-06
2.29602440543e-06
1.69421849806e-06
1.09100855432e-06
4.83455690511e-07
-1.03375759782e-09
0.000354706277164
0.000356906204399
0.000355171781056
0.000351202919643
0.000346753027904
0.000342540660828
0.000338756233528
0.000335394869918
0.000332399736963
0.000329710796473
0.000327277306757
0.000325058647482
0.0003230222778
0.000321141572509
0.000319394179036
0.000317760896895
0.000316224938249
0.000314771434732
0.000313387094063
0.000312059945166
0.000310779135423
0.000309534759448
0.000308317708042
0.000307119530961
0.00030593231332
0.000304748552709
0.000303561045582
0.000302362784066
0.000301146853764
0.000299906334018
0.000298634199685
0.000297323222986
0.000295965874022
0.000294554218577
0.000293079811939
0.000291533587685
0.000289905740737
0.000288185604673
0.000286361524285
0.000284420726104
0.000282349192107
0.000280131545681
0.000277750964092
0.000275189138763
0.000272426312821
0.000269441433804
0.000266212465166
0.000262716899159
0.000258932500181
0.000254838277032
0.000250415633734
0.00024564958804
0.000240529890268
0.000235051850333
0.000229216725784
0.000223031668111
0.000216509426325
0.000209668098844
0.000202531057196
0.000195126965028
0.000187490102301
0.000179661677693
0.000171691960315
0.000163640966603
0.000155575368929
0.000147562290161
0.000139662866211
0.000131928015931
0.000124397758379
0.000117103557548
0.000110071339043
0.00010332325857
9.6878206475e-05
9.07518604028e-05
8.4956543224e-05
7.95007364932e-05
7.43883561245e-05
6.96181785331e-05
6.51837298121e-05
6.10737018693e-05
5.72727779055e-05
5.37626850711e-05
5.05232984117e-05
4.75336582293e-05
4.47728139033e-05
4.22204581754e-05
3.98573563849e-05
3.7665599964e-05
3.56287236265e-05
3.37317253695e-05
3.19610226089e-05
3.03043700858e-05
2.87507578924e-05
2.72903019184e-05
2.59141345222e-05
2.46143000122e-05
2.33836574086e-05
2.22157915488e-05
2.11049327804e-05
2.00458849574e-05
1.90339612154e-05
1.80649268464e-05
1.71349485778e-05
1.62405495475e-05
1.53785693226e-05
1.45461283411e-05
1.37405962267e-05
1.29595634636e-05
1.22008159843e-05
1.14623122536e-05
1.07421624895e-05
1.00386096817e-05
9.35001212712e-06
8.67482721875e-06
8.01159629618e-06
7.35893040849e-06
6.71549694677e-06
6.08000719344e-06
5.45120494831e-06
4.82785632559e-06
4.20874023169e-06
3.59263672319e-06
2.97830349065e-06
2.36441180776e-06
1.7493680961e-06
1.13086363403e-06
5.04936112104e-07
2.02382921612e-09
0.000345216540666
0.000347891137301
0.000347511673185
0.000345028164655
0.000341794543007
0.000338508308329
0.000335436504443
0.000332642525147
0.000330112804292
0.00032781230857
0.000325705027252
0.000323759923008
0.000321951590503
0.000320259345529
0.000318666092369
0.000317157375686
0.000315720682034
0.000314344951083
0.000313020237975
0.000311737476607
0.000310488307372
0.000309264944948
0.000308060070607
0.000306866739651
0.000305678299914
0.000304488309646
0.000303290458719
0.000302078499031
0.000300846170674
0.000299587127612
0.00029829486173
0.000296962624225
0.000295583343127
0.000294149535807
0.000292653215145
0.000291085788174
0.000289437946061
0.000287699544741
0.000285859476158
0.000283905531573
0.000281824260524
0.00027960083296
0.000277218917503
0.000274660597014
0.000271906352833
0.000268935161008
0.000265724753907
0.000262252104264
0.000258494177527
0.000254428965568
0.000250036755942
0.000245301512473
0.000240212161497
0.000234763528032
0.000228956702743
0.000222798810667
0.000216302469671
0.000209485403149
0.00020237036314
0.000194985046029
0.000187362186836
0.000179541309852
0.000171572538617
0.000163518757583
0.000155451904414
0.000147444521669
0.000139561182378
0.000131853149015
0.000124358125155
0.000117104352251
0.000110115194081
0.000103411224838
9.70103761118e-05
9.09278151224e-05
8.51758052687e-05
7.97630528705e-05
7.46936466486e-05
6.99662102023e-05
6.55737095683e-05
6.15039503018e-05
5.77405635129e-05
5.42642318913e-05
5.10539385704e-05
4.80880796013e-05
4.53453479055e-05
4.28053606816e-05
4.04490496294e-05
3.82588593679e-05
3.62188062698e-05
3.43144452852e-05
3.25327821763e-05
3.08621580427e-05
2.92921237628e-05
2.78133152011e-05
2.64173351545e-05
2.509664501e-05
2.38444671027e-05
2.26546977533e-05
2.15218303185e-05
2.04408873784e-05
1.94073610545e-05
1.8417160501e-05
1.74665656462e-05
1.65521863694e-05
1.56709263701e-05
1.48199510823e-05
1.3996659063e-05
1.31986563468e-05
1.24237333271e-05
1.16698437621e-05
1.09350855601e-05
1.0217683017e-05
9.51597023078e-06
8.82837542458e-06
8.15340596453e-06
7.48963385717e-06
6.83568155662e-06
6.19020785164e-06
5.55189347398e-06
4.91942552459e-06
4.29147845858e-06
3.66668586459e-06
3.04358914377e-06
2.42053135029e-06
1.79543090596e-06
1.16532687539e-06
5.25599793491e-07
7.59588142364e-09
0.000338004416117
0.000340796680891
0.000341231481976
0.000339793042773
0.000337491063454
0.000334944773669
0.000332449262259
0.000330113402424
0.000327958984621
0.000325973690693
0.000324135223935
0.000322420916676
0.000320810847577
0.000319288344303
0.000317839584306
0.000316452991418
0.000315118679482
0.00031382801017
0.000312573263298
0.000311347397317
0.000310143875575
0.000308956538008
0.000307779502991
0.000306607090101
0.000305433753561
0.000304254020419
0.000303062430306
0.000301853484429
0.000300621589702
0.000299361001209
0.0002980657617
0.000296729636952
0.000295346045779
0.000293907983357
0.00029240793641
0.000290837788661
0.000289188714918
0.000287451062247
0.000285614217093
0.000283666458244
0.000281594797479
0.000279384813355
0.000277020489487
0.000274484077785
0.000271756019902
0.000268814975945
0.000265638025665
0.000262201117135
0.000258479831538
0.00025445049798
0.000250091622456
0.000245385493741
0.000240319715031
0.000234888320005
0.000229092141944
0.000222938342378
0.000216439509306
0.000209613101346
0.000202481489956
0.000195071757147
0.000187415127418
0.000179548968413
0.0001715233012
0.00016340560546
0.000155276110334
0.000147215787066
0.000139294714248
0.000131565140672
0.000124061876606
0.000116809203843
0.00010982782983
0.000103137059185
9.6754086226e-05
9.06936657762e-05
8.49681476508e-05
7.95866345568e-05
7.45534232884e-05
6.98667844991e-05
6.55187035412e-05
6.14955300923e-05
5.77792027807e-05
5.43487143287e-05
5.11815538269e-05
4.82549433283e-05
4.55467729267e-05
4.30362187635e-05
4.07040844119e-05
3.85329319125e-05
3.65070707638e-05
3.46124620455e-05
3.28365795526e-05
3.11682555571e-05
2.95975277291e-05
2.81154960341e-05
2.67141935215e-05
2.53864720362e-05
2.41259023223e-05
2.29266872654e-05
2.17835867377e-05
2.06918525138e-05
1.96471718135e-05
1.86456182082e-05
1.76836087669e-05
1.6757866506e-05
1.58653873139e-05
1.50034106767e-05
1.41693935955e-05
1.33609872065e-05
1.25760156466e-05
1.18124567965e-05
1.10684245436e-05
1.03421522745e-05
9.63197729749e-06
8.93632594817e-06
8.25369909709e-06
7.58265779656e-06
6.92180869891e-06
6.26978874244e-06
5.62524816646e-06
4.98683006477e-06
4.35314273703e-06
3.72271712047e-06
3.09393351794e-06
2.46488713725e-06
1.83313982594e-06
1.19528861094e-06
5.46317503216e-07
1.61529343791e-08
0.000332374721862
0.000335121401656
0.000336040661574
0.000335337446977
0.000333750809619
0.000331802607715
0.00032978395184
0.000327828999259
0.000325985741008
0.000324261308339
0.000322646188019
0.00032112575048
0.000319685161077
0.000318311136527
0.00031699231699
0.000315719098925
0.000314483307352
0.000313277863058
0.000312096498571
0.00031093353323
0.000309783701047
0.000308642020388
0.000307503694444
0.000306364036738
0.000305218406348
0.00030406215243
0.000302890563056
0.000301698821879
0.000300481961912
0.00029923481761
0.000297951973745
0.000296627709656
0.000295255937391
0.000293830132156
0.000292343253244
0.000290787653446
0.00028915497455
0.000287436026528
0.000285620647885
0.000283697545371
0.000281654112653
0.000279476230942
0.000277148060462
0.000274651841856
0.000271967741811
0.000269073797992
0.000265946041762
0.000262558896284
0.000258885948458
0.000254901159119
0.000250580493504
0.000245903825717
0.000240856815147
0.000235432304784
0.000229630738989
0.000223459365432
0.000216930777603
0.000210062136475
0.000202875617421
0.000195398207024
0.000187659636695
0.000179693948882
0.00017155045299
0.000163303390233
0.000155045453125
0.000146870003891
0.000138855253537
0.000131055027797
0.000123499973706
0.000116209093669
0.000109200390437
0.000102492448993
9.61019310546e-05
9.00431299881e-05
8.43285827944e-05
7.8967996322e-05
7.39659087406e-05
6.93199609181e-05
6.50206192089e-05
6.10520879167e-05
5.73938720304e-05
5.40225575538e-05
5.09134993953e-05
4.80422094275e-05
4.5385347281e-05
4.29213181666e-05
4.06305474466e-05
3.84955257682e-05
3.65007123691e-05
3.46323645851e-05
3.28783394209e-05
3.12278948959e-05
2.96715056029e-05
2.82006987168e-05
2.68079117043e-05
2.54863706258e-05
2.42299867074e-05
2.30332686794e-05
2.18912483647e-05
2.07994173679e-05
1.97536729387e-05
1.87502714761e-05
1.77857883317e-05
1.68570828711e-05
1.59612678801e-05
1.50956826087e-05
1.42578688198e-05
1.34455493524e-05
1.26566087423e-05
1.18890755433e-05
1.11411059981e-05
1.04109687751e-05
9.69703047146e-06
8.99774161388e-06
8.31162283612e-06
7.63725086861e-06
6.97324380879e-06
6.31824486125e-06
5.67090313713e-06
5.02984897957e-06
4.39365909635e-06
3.76080274763e-06
3.12955310304e-06
2.49783673357e-06
1.86298111753e-06
1.22131745327e-06
5.67633046154e-07
2.7996584165e-08
0.00032789304181
0.000330523006332
0.000331723307898
0.000331536230208
0.000330498045636
0.000329034788533
0.000327415373442
0.000325783617479
0.000324204809211
0.000322701489467
0.000321275444561
0.000319919666091
0.000318624296123
0.000317379316009
0.000316175591802
0.000315005144437
0.000313861086844
0.000312737442158
0.000311628940349
0.000310530832811
0.000309438737212
0.000308348512822
0.000307256161623
0.00030615775412
0.000305049364494
0.000303927013338
0.000302786621622
0.000301623969097
0.000300434652325
0.000299214041505
0.000297957234364
0.000296659005417
0.000295313748847
0.000293915413066
0.000292457424772
0.000290932599881
0.000289333038293
0.000287649998883
0.000285873750828
0.000283993397305
0.000281996668589
0.000279869684255
0.000277596689986
0.000275159785307
0.000272538676389
0.000269710514222
0.000266649911359
0.00026332926197
0.000259719503104
0.000255791424787
0.000251517541653
0.000246874378261
0.000241844815562
0.000236419920212
0.000230599505245
0.000224390896239
0.0002178065799
0.00021086306703
0.000203582346375
0.000195992200413
0.000188121115725
0.000179997512316
0.000171668196265
0.000163217193601
0.00015475580348
0.000146395150996
0.000138225137795
0.000130301835606
0.000122649357987
0.000115279217666
0.000108206947003
0.000101451436572
9.50288871088e-05
8.8952725527e-05
8.32356570373e-05
7.78882258226e-05
7.29151922245e-05
6.83131247225e-05
6.40702257308e-05
6.01676732597e-05
5.65816433778e-05
5.32854897888e-05
5.02517320458e-05
4.7453618178e-05
4.48661661971e-05
4.24667190308e-05
4.02351238224e-05
3.81536646752e-05
3.62068595306e-05
3.43812002757e-05
3.26648851132e-05
3.10475693893e-05
2.95201461588e-05
2.80745590399e-05
2.67036454811e-05
2.54010066709e-05
2.41608998816e-05
2.29781492674e-05
2.18480716643e-05
2.07664145115e-05
1.97293035613e-05
1.87331985042e-05
1.77748550154e-05
1.68512920337e-05
1.59597633152e-05
1.50977324977e-05
1.4262851043e-05
1.34529385467e-05
1.26659649767e-05
1.19000344765e-05
1.1153370401e-05
1.04243012934e-05
9.71124750697e-06
9.01270817242e-06
8.32724814774e-06
7.65348448929e-06
6.99007175884e-06
6.33568510411e-06
5.68899933169e-06
5.04866094096e-06
4.41324786101e-06
3.78120789815e-06
3.15076100088e-06
2.51974254964e-06
1.88535795798e-06
1.24382262123e-06
5.89891009441e-07
4.32951162717e-08
0.000324276259247
0.000326761909724
0.000328116251508
0.000328289800485
0.000327670794662
0.000326600289718
0.000325316566414
0.000323962240929
0.000322612265582
0.000321300396031
0.000320037788728
0.00031882432791
0.00031765493106
0.00031652281115
0.000315421030744
0.000314343150189
0.000313283421554
0.000312236771326
0.000311198697392
0.000310165141974
0.000309132368557
0.000308096853646
0.000307055195753
0.000306004044026
0.000304940035752
0.000303859736342
0.000302759596599
0.000301635911038
0.00030048477757
0.000299302056487
0.000298083326843
0.000296823838387
0.000295518457009
0.000294161601515
0.000292747169047
0.000291268446051
0.000289718000811
0.000288087552881
0.000286367813711
0.000284548292225
0.000282617059077
0.00028056046523
0.000278362815478
0.000276006008692
0.000273469176396
0.000270728383593
0.000267756499742
0.000264523396761
0.000260996662645
0.000257142999255
0.000252930365556
0.000248330729588
0.00024332303425
0.000237895667552
0.000232047348428
0.000225785344541
0.000219121638779
0.000212071057502
0.000204654883481
0.000196903271323
0.000188844537072
0.00018049724014
0.00017190160707
0.000163156172322
0.000154400428769
0.000145770572076
0.000137373318179
0.000129268101544
0.00012146826193
0.00011397412942
0.000106799784124
9.99663038496e-05
9.3489022644e-05
8.73793081443e-05
8.16497793516e-05
7.63120707882e-05
7.13710084368e-05
6.68213479539e-05
6.26479666882e-05
5.88278727502e-05
5.53328207287e-05
5.21319756585e-05
4.9194255127e-05
4.6490081267e-05
4.39924525782e-05
4.16774166728e-05
3.95241118661e-05
3.75145517431e-05
3.56332892852e-05
3.38670502654e-05
3.22043857524e-05
3.06353664246e-05
2.91513248726e-05
2.77446437474e-05
2.64085838235e-05
2.51371452598e-05
2.3924955583e-05
2.27671789376e-05
2.16594420418e-05
2.05977733206e-05
1.95785523785e-05
1.85984676835e-05
1.76544807532e-05
1.6743795572e-05
1.58638321954e-05
1.50122037649e-05
1.41866962728e-05
1.3385250578e-05
1.26059462282e-05
1.1846986741e-05
1.11066860138e-05
1.03834555757e-05
9.67579237874e-06
8.98226680904e-06
8.30151051155e-06
7.63220349057e-06
6.97305967777e-06
6.32280972145e-06
5.68017897415e-06
5.0438573775e-06
4.41245583297e-06
3.78444038364e-06
3.15803090042e-06
2.5310456503e-06
1.90067000022e-06
1.26313314129e-06
6.1329783645e-07
6.20996256276e-08
0.000321332255308
0.000323666157255
0.000325094190941
0.000325517450275
0.000325217469071
0.000324464049869
0.000323462574169
0.000322347645928
0.000321197913782
0.000320054485143
0.000318935784609
0.000317847605342
0.000316789260295
0.000315757092104
0.000314746355208
0.000313752153364
0.000312769854237
0.00031179522794
0.000310824448695
0.000309854035376
0.000308880770543
0.000307901617414
0.000306913644647
0.000305913962002
0.000304899661998
0.00030386776291
0.000302815167201
0.000301738620859
0.000300634674249
0.000299499642501
0.000298329563532
0.000297120151742
0.000295866745235
0.000294564244065
0.000293207036514
0.00029178890964
0.000290302939363
0.000288741354048
0.000287095364097
0.000285354948496
0.000283508588291
0.000281542937294
0.000279442424203
0.000277188790526
0.000274760590142
0.000272132714152
0.000269276062154
0.000266157552366
0.000262740723308
0.000258987179362
0.000254859015306
0.000250322110416
0.000245349872017
0.000239926621661
0.000234049136392
0.000227724261263
0.000220962585018
0.000213774826426
0.000206179593816
0.000198212048388
0.000189903627004
0.000181255282202
0.000172291977673
0.000163135023253
0.000153967935523
0.000144961646763
0.000136247587423
0.000127891141175
0.000119887245041
0.000112218663899
0.000104900877956
9.79604513573e-05
9.1410071902e-05
8.52562114661e-05
7.9510769126e-05
7.41867651852e-05
6.92886598651e-05
6.48081738353e-05
6.07253686314e-05
5.70116299004e-05
5.36329906877e-05
5.05533521665e-05
4.77372276775e-05
4.51516839754e-05
4.27674001052e-05
4.05589956662e-05
3.85048753222e-05
3.65868189487e-05
3.47894818133e-05
3.30999021786e-05
3.15070635414e-05
3.00015272906e-05
2.8575134798e-05
2.7220770442e-05
2.5932174913e-05
2.47037984922e-05
2.35306854752e-05
2.240838256e-05
2.13328656135e-05
2.03004805156e-05
1.93078948479e-05