/*--------------------------------*- C++ -*----------------------------------*\
  =========                 |
  \\      /  F ield         | OpenFOAM: The Open Source CFD Toolbox
   \\    /   O peration     | Website:  https://openfoam.org
    \\  /    A nd           | Version:  7
     \\/     M anipulation  |
\*---------------------------------------------------------------------------*/
FoamFile
{
    version     2.0;
    format      ascii;
    class       surfaceScalarField;
    location    "540";
    object      phi;
}
// * * * * * * * * * * * * * * * * * * * * * * * * * * * * * * * * * * * * * //

dimensions      [0 3 -1 0 0 0 0];

internalField   nonuniform List<scalar> 
16192
(
6.92883017217e-10
2.44616982783e-10
4.93482888862e-10
1.99400119968e-10
3.64735083273e-10
1.28747797576e-10
2.82176157858e-10
8.25589176223e-11
2.27606078937e-10
5.45700708702e-11
1.9007524481e-10
3.75308258572e-11
1.63235227675e-10
2.6840008738e-11
1.43368610449e-10
1.98666087538e-11
1.28237558154e-10
1.51310437884e-11
1.16447191088e-10
1.17903585339e-11
1.07095573166e-10
9.35160938152e-12
9.95784292998e-11
7.51713530881e-12
9.34774834985e-11
6.10093724238e-12
8.849471032e-11
4.98276460881e-12
8.44123952118e-11
4.08230655092e-12
8.10681056157e-11
3.3442810498e-12
7.83385308864e-11
2.7295662312e-12
7.61287533576e-11
2.20976908784e-12
7.43649413634e-11
1.76380366327e-12
7.29892567952e-11
1.37567636904e-12
7.19562327322e-11
1.03301606521e-12
7.12301496208e-11
7.26075351532e-13
7.07831048943e-11
4.47037292323e-13
7.05935733037e-11
1.89524535855e-13
7.06453211363e-11
-5.17544006011e-14
7.09265787285e-11
-2.81263599909e-13
7.14294034612e-11
-5.02830052812e-13
7.21491861495e-11
-7.19787224982e-13
7.30842652907e-11
-9.35082747021e-13
7.42356201145e-11
-1.15135737976e-12
7.56066198288e-11
-1.37100105451e-12
7.72028092501e-11
-1.59618940287e-12
7.90317130975e-11
-1.82890228986e-12
8.11026410667e-11
-2.07092470795e-12
8.3426475457e-11
-2.32382923705e-12
8.60154213166e-11
-2.5889386332e-12
8.88826973153e-11
-2.86726651358e-12
9.20421433812e-11
-3.15943413394e-12
9.55077196339e-11
-3.46556170736e-12
9.92928711594e-11
-3.78513418662e-12
1.03409735413e-10
-4.11684399593e-12
1.07868176029e-10
-4.45841728921e-12
1.12674638498e-10
-4.80643601619e-12
1.17830843242e-10
-5.15617507257e-12
1.23332357518e-10
-5.50148143092e-12
1.29167121817e-10
-5.83472827188e-12
1.35314040435e-10
-6.14687959058e-12
1.417417779e-10
-6.42769553957e-12
1.48407916262e-10
-6.66609388222e-12
1.55258619402e-10
-6.8506563398e-12
1.62228902696e-10
-6.97023469375e-12
1.69243529804e-10
-7.01457708063e-12
1.76218455924e-10
-6.97487536396e-12
1.83062649604e-10
-6.84414269682e-12
1.89680077247e-10
-6.61737729625e-12
1.95971669147e-10
-6.29154280107e-12
2.01837187041e-10
-5.86547104081e-12
2.07177062548e-10
-5.33983158198e-12
2.11894409804e-10
-4.71730733693e-12
2.15897524572e-10
-4.00307953059e-12
2.19103204906e-10
-3.20565080573e-12
2.21441070668e-10
-2.3378424466e-12
2.22858571953e-10
-1.41748495777e-12
2.23325697641e-10
-4.6711649109e-13
2.22837962804e-10
4.87736527457e-13
2.21416548018e-10
1.42140924639e-12
2.19105409329e-10
2.31112593893e-12
2.15966214524e-10
3.13917546413e-12
2.12072598944e-10
3.89358995926e-12
2.07505155714e-10
4.56741216762e-12
2.02347911573e-10
5.15720814278e-12
1.96686299082e-10
5.66157252774e-12
1.90606181264e-10
6.08007452535e-12
1.84193386012e-10
6.41274965609e-12
1.77533278924e-10
6.6600598889e-12
1.70710044505e-10
6.82318663159e-12
1.63805513151e-10
6.90448366498e-12
1.5689756974e-10
6.90789672687e-12
1.50058339224e-10
6.83918541476e-12
1.43352430825e-10
6.70586558632e-12
1.36835507066e-10
6.51688363451e-12
1.30553367017e-10
6.282103084e-12
1.24541621769e-10
6.01171164926e-12
1.18825940583e-10
5.715651191e-12
1.13422769006e-10
5.40314522091e-12
1.08340382203e-10
5.08236412412e-12
1.03580127224e-10
4.76023588411e-12
9.91377247418e-11
4.44238685944e-12
9.50045284438e-11
4.13318396965e-12
9.1168673382e-11
3.83584582096e-12
8.76160742549e-11
3.55259275337e-12
8.43312588572e-11
3.28481163208e-12
8.12980392792e-11
3.03321819301e-12
7.85000339732e-11
2.79800602283e-12
7.59210599963e-11
2.57897658405e-12
7.35454160055e-11
2.37564821247e-12
7.13580769762e-11
2.18734468334e-12
6.93448187374e-11
2.01326506586e-12
6.74922890528e-11
1.85253753792e-12
6.57880380144e-11
1.70425968226e-12
6.42205193345e-11
1.5675280038e-12
6.27790703448e-11
1.44145878399e-12
6.14538781034e-11
1.32520242983e-12
6.02359357346e-11
1.21795276743e-12
5.91169934767e-11
1.11895282055e-12
5.80895060783e-11
1.02749796476e-12
5.71465790822e-11
9.42937545535e-13
5.62819139831e-11
8.64675491953e-13
5.54897534558e-11
7.92170763508e-13
5.47648254042e-11
7.24938008969e-13
5.41022858685e-11
6.62549229776e-13
5.34976582921e-11
6.04636898862e-13
5.29467677299e-11
5.50899540039e-13
5.24456656417e-11
5.01110623282e-13
5.19905413146e-11
4.55132453671e-13
5.15776119368e-11
4.12937004456e-13
5.12029819655e-11
3.74637136401e-13
5.08624555252e-11
3.40533056267e-13
5.05512793245e-11
3.11182307507e-13
5.02637784081e-11
2.87506430162e-13
4.99928265331e-11
2.7095683971e-13
4.97290535963e-11
2.63777279268e-13
4.94596336561e-11
2.6942372284e-13
4.91664118702e-11
2.93224968178e-13
4.88230864012e-11
3.43328153275e-13
4.83916269782e-11
4.3146158252e-13
4.78211586478e-11
5.70469890389e-13
7.32048843536e-13
9.53368009049e-10
2.2874896565e-10
8.59578987605e-10
2.93189125513e-10
7.45063186056e-10
2.43263583535e-10
6.419772466e-10
1.85644841376e-10
5.56946928742e-10
1.39600372584e-10
4.88763183578e-10
1.05714554558e-10
4.34395976781e-10
8.1207198878e-11
3.90885186922e-10
6.33773818297e-11
3.55811255343e-10
5.02049585001e-11
3.27313177185e-10
4.02884197533e-11
3.03988580881e-10
3.26761886879e-11
2.84783796454e-10
2.67219026777e-11
2.68902963855e-10
2.19817527366e-11
2.55739557958e-10
1.81461533618e-11
2.44826627904e-10
1.49952194535e-11
2.35801067647e-10
1.23698241749e-11
2.28377967278e-10
1.01526495436e-11
2.22332092152e-10
8.25562728443e-12
2.17484388021e-10
6.61149107456e-12
2.13692044812e-10
5.16800314692e-12
2.10841100733e-10
3.8839441158e-12
2.08840877845e-10
2.7262827259e-12
2.07619752901e-10
1.668147385e-12
2.07121912136e-10
6.87351257801e-13
2.07304838853e-10
-2.34694164971e-13
2.08137350189e-10
-1.11378680216e-12
2.09598047819e-10
-1.96353814091e-12
2.11674083616e-10
-2.79583184426e-12
2.14360161376e-10
-3.62116742609e-12
2.17657710566e-10
-4.44891131651e-12
2.21574179165e-10
-5.28747192217e-12
2.26122398593e-10
-6.14440831095e-12
2.31319977195e-10
-7.02647724953e-12
2.37188679153e-10
-7.93961955835e-12
2.43753744799e-10
-8.88888395909e-12
2.51043105907e-10
-9.87828464154e-12
2.59086446893e-10
-1.09105878747e-11
2.67914060812e-10
-1.19870235536e-11
2.77555448845e-10
-1.3106920053e-11
2.88037615948e-10
-1.42672661058e-11
2.99383024962e-10
-1.54622120957e-11
3.11607190732e-10
-1.66825361992e-11
3.24715925348e-10
-1.79151177233e-11
3.38702289662e-10
-1.91424803586e-11
3.53543361485e-10
-2.03424882025e-11
3.69196997166e-10
-2.14882930129e-11
3.85598827595e-10
-2.25486335395e-11
4.0265978312e-10
-2.34885694414e-11
4.20264459968e-10
-2.42706846169e-11
4.38270611736e-10
-2.48567181974e-11
4.56509953764e-10
-2.52094839926e-11
4.74790318205e-10
-2.52948469747e-11
4.92899011151e-10
-2.50834732386e-11
5.10607062648e-10
-2.45520998777e-11
5.27673979292e-10
-2.36842019366e-11
5.43852667863e-10
-2.24701431726e-11
5.58894381094e-10
-2.09071016122e-11
5.72553790087e-10
-1.8999165042e-11
5.84594508322e-10
-1.67579589181e-11
5.94795536582e-10
-1.42040514796e-11
6.0295909076e-10
-1.13691604924e-11
6.08919960369e-10
-8.29868038524e-12
6.12555709498e-10
-5.05321608983e-12
6.13795885407e-10
-1.70728832828e-12
6.1262771273e-10
1.65589929973e-12
6.09096304256e-10
4.95279437444e-12
6.03299090863e-10
8.10830321497e-12
5.95376009038e-10
1.10622095427e-11
5.85498114188e-10
1.3771426591e-11
5.73857182197e-10
1.6208276973e-11
5.60657750061e-10
1.83565655546e-11
5.46111756424e-10
2.02074855939e-11
5.30435126429e-10
2.17566196536e-11
5.13845411264e-10
2.30023773954e-11
4.96559665897e-10
2.39457168082e-11
4.78791957551e-10
2.45908071489e-11
4.60750192526e-10
2.49461628524e-11
4.42632305826e-10
2.50257009509e-11
4.24622159487e-10
2.48492536837e-11
4.06885657902e-10
2.44422944814e-11
3.89567575677e-10
2.38348991951e-11
3.72789459138e-10
2.30601595377e-11
3.56648764986e-10
2.21523525532e-11
3.41219209652e-10
2.11451602867e-11
3.26552152907e-10
2.0070162675e-11
3.12678753977e-10
1.89557305872e-11
2.99612609997e-10
1.78263539294e-11
2.87352607302e-10
1.67023698255e-11
2.75885763276e-10
1.56000140475e-11
2.65189897123e-10
1.45317033674e-11
2.55236026447e-10
1.35064596825e-11
2.45990437307e-10
1.25304014005e-11
2.3741641401e-10
1.16072460135e-11
2.29475641575e-10
1.0738786397e-11
2.2212931043e-10
9.9253186417e-12
2.15338960769e-10
9.16601131524e-12
2.09067107063e-10
8.45921397323e-12
2.03277681291e-10
7.80270817104e-12
1.97936330805e-10
7.19390678519e-12
1.93010601369e-10
6.63000896817e-12
1.884700321e-10
6.10811795534e-12
1.84286183309e-10
5.62532880719e-12
1.80432615174e-10
5.17879214878e-12
1.7688483023e-10
4.76575941332e-12
1.73620190743e-10
4.38361398345e-12
1.70617818006e-10
4.02989216008e-12
1.67858479709e-10
3.70229698129e-12
1.65324468171e-10
3.39870769556e-12
1.62999471992e-10
3.11718706654e-12
1.60868440717e-10
2.85598874253e-12
1.58917442102e-10
2.61356659391e-12
1.57133508663e-10
2.38858827595e-12
1.55504470013e-10
2.17995529121e-12
1.54018764243e-10
1.98683256932e-12
1.52665220843e-10
1.80869109243e-12
1.51432803619e-10
1.64536844954e-12
1.50310300448e-10
1.49715350513e-12
1.4928594193e-10
1.36490367272e-12
1.48346929668e-10
1.25020557084e-12
1.4747885343e-10
1.1555925084e-12
1.46664986799e-10
1.08483216642e-12
1.45885482797e-10
1.04328879357e-12
1.45116589974e-10
1.03832291304e-12
1.44330270196e-10
1.07954993412e-12
1.43495294561e-10
1.17830779666e-12
1.42582599205e-10
1.34415975943e-12
1.41583163882e-10
1.56990700597e-12
1.7771765595e-12
9.7621538183e-10
1.90033575816e-10
9.63001861569e-10
3.06402630095e-10
9.06192696304e-10
3.00072733457e-10
8.33958132786e-10
2.57879389523e-10
7.61291644992e-10
2.12266844609e-10
6.94599939811e-10
1.72406243663e-10
6.35948215896e-10
1.39858906519e-10
5.85435700748e-10
1.13889880553e-10
5.42375059904e-10
9.32655828083e-11
5.05841788216e-10
7.6821674789e-11
4.74912758586e-10
6.36052015661e-11
4.48757874539e-10
5.28767698566e-11
4.26665341313e-10
4.40742689948e-11
4.08038936865e-10
3.67725407343e-11
3.92385029247e-10
3.06491099238e-11
3.7929719827e-10
2.54576379373e-11
3.68441682078e-10
2.1008148513e-11
3.59544755316e-10
1.71525368407e-11
3.52382227847e-10
1.37740014389e-11
3.46770888893e-10
1.07793251471e-11
3.42561608123e-10
8.09320819401e-12
3.39633796699e-10
5.65407779716e-12
3.37890963938e-10
3.41096427734e-12
3.37257147229e-10
1.32115268986e-12
3.3767403452e-10
-6.51595962703e-13
3.39098630945e-10
-2.53839681599e-12
3.41501352869e-10
-4.36627252294e-12
3.44864456141e-10
-6.15894625426e-12
3.49180716587e-10
-7.93743744012e-12
3.54452293543e-10
-9.72049603916e-12
3.6068971546e-10
-1.15248995193e-11
3.67910930466e-10
-1.33656266349e-11
3.76140366876e-10
-1.52559143048e-11
3.85407947909e-10
-1.72071982511e-11
3.95748003204e-10
-1.92289335994e-11
4.07198016907e-10
-2.13282890361e-11
4.19797149611e-10
-2.35097072931e-11
4.33584470433e-10
-2.57743267668e-11
4.48596837377e-10
-2.81192647762e-11
4.64866372073e-10
-3.05367736445e-11
4.824174901e-10
-3.30132978154e-11
5.01263475821e-10
-3.55284842038e-11
5.21402630558e-10
-3.80542292474e-11
5.4281408081e-10
-4.05538817566e-11
5.65453403286e-10
-4.2981756281e-11
5.89248306851e-10
-4.52831366646e-11
6.14094690343e-10
-4.73949519412e-11
6.39853460511e-10
-4.92472695899e-11
6.66348514562e-10
-5.07656643494e-11
6.93366254587e-10
-5.1874380113e-11
7.20656880035e-10
-5.25000284865e-11
7.47937515908e-10
-5.25753998278e-11
7.74896996556e-10
-5.20428700625e-11
8.01201916372e-10
-5.08569360949e-11
8.26503445309e-10
-4.89856490388e-11
8.50444472711e-10
-4.64110917342e-11
8.72666867302e-10
-4.31294220984e-11
8.9281895097e-10
-3.91511806764e-11
9.10563531013e-10
-3.4502478805e-11
9.25586987086e-10
-2.92274565198e-11
9.37609928263e-10
-2.33920613489e-11
9.46399645981e-10
-1.70883693165e-11
9.51783594421e-10
-1.04371482739e-11
9.5366158636e-10
-3.58527661135e-12
9.52013380903e-10
3.30409563946e-12
9.46899038035e-10
1.00671160888e-11
9.38451642944e-10
1.65556656805e-11
9.26864448438e-10
2.26493612674e-11
9.12375937853e-10
2.82598852327e-11
8.95256122605e-10
3.33280326846e-11
8.75795868745e-10
3.78167534791e-11
8.54299364118e-10
4.17039195513e-11
8.31078879166e-10
4.49770304857e-11
8.06450779865e-10
4.76304007846e-11
7.80731861269e-10
4.96645589769e-11
7.54235287836e-10
5.10873051835e-11
7.27265761356e-10
5.19156161117e-11
7.00113980931e-10
5.21774116036e-11
6.73050841934e-10
5.19123272223e-11
6.46322020626e-10
5.11710555284e-11
6.20143566988e-10
5.00132982821e-11
5.94698953949e-10
4.85047242118e-11
5.70137782763e-10
4.67134817336e-11
5.46576106586e-10
4.47068009275e-11
5.24098146977e-10
4.25480931116e-11
5.02759069268e-10
4.02947853158e-11
4.82588445033e-10
3.79969610796e-11
4.6359405201e-10
3.56967512994e-11
4.45765718709e-10
3.34283409374e-11
4.29078994419e-10
3.12184259238e-11
4.13498498758e-10
2.90869578551e-11
3.98980868849e-10
2.70480375705e-11
3.85477273215e-10
2.51108512427e-11
3.72935497167e-10
2.32805748882e-11
3.61301628896e-10
2.15592018354e-11
3.50521387834e-10
1.99462693289e-11
3.40541143779e-10
1.84394767014e-11
3.31308674534e-10
1.70351974106e-11
3.22773708502e-10
1.57288938922e-11
3.14888292594e-10
1.45154466832e-11
3.07607022059e-10
1.33894108488e-11
3.00887161606e-10
1.23452118778e-11
2.94688683676e-10
1.13772928286e-11
2.88974243138e-10
1.04802225866e-11
2.83709105235e-10
9.64877433004e-12
2.78861038071e-10
8.87798136703e-12
2.74400179662e-10
8.16317699405e-12
2.70298884896e-10
7.50002345102e-12
2.66531557366e-10
6.88453496176e-12
2.63074466979e-10
6.31309872282e-12
2.59905554342e-10
5.78249806468e-12
2.57004219226e-10
5.2899413353e-12
2.54351090747e-10
4.83310085e-12
2.51927773409e-10
4.41016600671e-12
2.49716563831e-10
4.01991582438e-12
2.4770013021e-10
3.6618161675e-12
2.45861148814e-10
3.33614797864e-12
2.44181892461e-10
3.04417197835e-12
2.4264377525e-10
2.78833364894e-12
2.41226872809e-10
2.57250463199e-12
2.39909474831e-10
2.40223870106e-12
2.38667796562e-10
2.28497442514e-12
2.37476117961e-10
2.23000778441e-12
2.36307882123e-10
2.24779091099e-12
2.35138742809e-10
2.34745107232e-12
2.33953251837e-10
2.52965345692e-12
2.3275568378e-10
2.76747662922e-12
2.96047402888e-12
9.71783354271e-10
1.55750213913e-10
9.86766652797e-10
2.914193159e-10
9.68396552541e-10
3.18442818402e-10
9.2829330588e-10
2.97982620738e-10
8.78310132647e-10
2.62250001942e-10
8.25966103545e-10
2.24750256524e-10
7.75407592163e-10
1.90417401419e-10
7.28664479796e-10
1.6063297624e-10
6.86547960375e-10
1.35382085367e-10
6.49207485718e-10
1.14162132402e-10
6.16456602776e-10
9.6356067273e-11
5.87956670981e-10
8.13766842128e-11
5.63317033193e-10
6.87138891354e-11
5.42147374376e-10
5.79421816887e-11
5.24083292868e-10
4.8713173362e-11
5.08797195085e-10
4.07437174504e-11
4.96001386184e-10
3.38039389696e-11
4.85447204061e-10
2.77067003707e-11
4.7692231746e-10
2.22988693448e-11
4.7024733162e-10
1.74542922358e-11
4.65272297014e-10
1.30682240629e-11
4.61873412161e-10
9.05294400025e-12
4.59950045275e-10
5.33431269576e-12
4.5942211012e-10
1.84906966464e-12
4.60227785714e-10
-1.45728932153e-12
4.62321542141e-10
-4.63217045452e-12
4.65672434105e-10
-7.71718098069e-12
4.70262616101e-10
-1.07491438492e-11
4.76086026846e-10
-1.37608626866e-11
4.83147194179e-10
-1.67816765558e-11
4.91460110875e-10
-1.98378278403e-11
5.01047130231e-10
-2.29526557933e-11
5.11937828063e-10
-2.61466198391e-11
5.24167774584e-10
-2.94371500708e-11
5.37777155907e-10
-3.28383175072e-11
5.52809181262e-10
-3.6360313928e-11
5.69308209035e-10
-4.00087312279e-11
5.87317524165e-10
-4.37836343342e-11
6.0687670237e-10
-4.7678431371e-11
6.28018506396e-10
-5.16785616749e-11
6.50765277604e-10
-5.57600483553e-11
6.75124817498e-10
-5.98879984726e-11
7.01085799444e-10
-6.4015180405e-11
7.28612815013e-10
-6.80808611927e-11
7.57641239242e-10
-7.20101389687e-11
7.88072192541e-10
-7.57140429923e-11
8.19767969696e-10
-7.90906768356e-11
8.52548383109e-10
-8.20276256583e-11
8.86188498384e-10
-8.44057175936e-11
9.20418202399e-10
-8.61040178924e-11
9.5492391153e-10
-8.70056678714e-11
9.89352505236e-10
-8.70039210532e-11
1.02331728449e-09
-8.6007575098e-11
1.05640548454e-09
-8.3945061244e-11
1.08818671546e-09
-8.076680564e-11
1.11822176459e-09
-7.64460684506e-11
1.14607147496e-09
-7.09790634268e-11
1.17130579026e-09
-6.43854318173e-11
1.19351333521e-09
-5.67099661083e-11
1.21231205101e-09
-4.80261227265e-11
1.22736153274e-09
-3.84415030598e-11
1.23837760699e-09
-2.81044143437e-11
1.24514858788e-09
-1.72081116547e-11
1.24755045053e-09
-5.98713390693e-12
1.24555651845e-09
5.29802097892e-12
1.23923808724e-09
1.63855290212e-11
1.22875544175e-09
2.70382823111e-11
1.21434199337e-09
3.70627714638e-11
1.1962861291e-09
4.63157033625e-11
1.17491496824e-09
5.46991408877e-11
1.15058203791e-09
6.214962604e-11
1.12365863509e-09
6.86272609316e-11
1.09452764203e-09
7.41079597706e-11
1.06357858676e-09
7.85793913345e-11
1.03120296661e-09
8.20401147203e-11
9.9778904995e-10
8.45011590132e-11
9.63715727615e-10
8.59888782966e-11
9.29345521132e-10
8.65475616492e-11
8.95017327616e-10
8.62404688089e-11
8.61039701258e-10
8.51486351469e-11
8.27685415082e-10
8.33675433444e-11
7.95187814734e-10
8.10022893951e-11
7.63739175374e-10
7.81620919755e-11
7.33490993371e-10
7.49549598648e-11
7.04555933134e-10
7.14831361586e-11
6.7701102995e-10
6.78396769557e-11
6.50901713538e-10
6.41062712383e-11
6.26246247026e-10
6.03522164757e-11
6.03040243753e-10
5.66343473476e-11
5.8126100884e-10
5.29976680077e-11
5.60871535115e-10
4.94764423197e-11
5.41824055149e-10
4.60955313993e-11
5.24063107762e-10
4.28718151736e-11
5.07528118424e-10
3.98155830377e-11
4.92155520278e-10
3.69318206657e-11
4.77880458447e-10
3.42213533534e-11
4.64638128201e-10
3.16818303201e-11
4.52364799197e-10
2.93085506588e-11
4.40998576432e-10
2.7095141505e-11
4.30479943998e-10
2.5034104318e-11
4.20752132884e-10
2.31172473099e-11
4.11761347901e-10
2.13360221527e-11
4.03456883766e-10
1.96817820464e-11
3.95791154558e-10
1.81459765131e-11
3.88719656681e-10
1.67202964476e-11
3.8220088066e-10
1.53967810339e-11
3.76196184103e-10
1.41678965234e-11
3.70669634405e-10
1.30265953586e-11
3.65587827713e-10
1.19663630493e-11
3.60919687698e-10
1.09812592505e-11
3.56636246387e-10
1.00659589756e-11
3.5271040693e-10
9.21579942495e-12
3.49116687589e-10
8.42683783615e-12
3.45830944619e-10
7.69592559037e-12
3.42830072219e-10
7.02080379381e-12
3.40091677905e-10
6.40022496372e-12
3.37593735114e-10
5.83410415324e-12
3.35314220027e-10
5.32369930782e-12
3.33230751609e-10
4.87181315369e-12
3.31320273346e-10
4.48299278305e-12
3.29558850558e-10
4.16367017322e-12
3.27921713517e-10
3.92211891596e-12
3.26383765646e-10
3.76796189222e-12
3.24920893372e-10
3.7106682138e-12
3.23512508204e-10
3.75584011126e-12
3.22145412764e-10
3.89675156866e-12
3.20816577345e-10
4.09631362303e-12
4.25542793389e-12
9.64004918827e-10
1.29245287112e-10
9.87925614044e-10
2.67498604444e-10
9.90280698231e-10
3.16087718298e-10
9.73149384028e-10
3.15113918985e-10
9.43468954912e-10
2.91930414666e-10
9.07276043703e-10
2.60943150985e-10
8.68756234655e-10
2.28937193451e-10
8.30548883924e-10
1.9884030972e-10
7.94204178848e-10
1.71726772967e-10
7.60556996273e-10
1.47809297259e-10
7.29991592049e-10
1.26921453527e-10
7.02618389212e-10
1.08749868804e-10
6.78388434182e-10
9.29438256319e-11
6.57165940675e-10
7.91646563589e-11
6.38773418482e-10
6.71056764127e-11
6.23019172355e-10
5.64979441278e-11
6.09713604742e-10
4.71094868392e-11
5.98678487407e-10
3.87417976812e-11
5.89751871059e-10
3.122546542e-11
5.82790330225e-10
2.4415812581e-11
5.77669615281e-10
1.81889183542e-11
5.74284383142e-10
1.24381553793e-11
5.72547422896e-10
7.07125215461e-12
5.72388629915e-10
2.00784191431e-12
5.73753878964e-10
-2.82255893519e-12
5.76603873021e-10
-7.48218479135e-12
5.80913021931e-10
-1.20263497408e-11
5.86668360087e-10
-1.65045012686e-11
5.93868495087e-10
-2.09610161778e-11
6.02522570457e-10
-2.54357694444e-11
6.12649214956e-10
-2.99644886586e-11
6.24275442651e-10
-3.45788983637e-11
6.37435460796e-10
-3.93066511434e-11
6.5216933586e-10
-4.417103629e-11
6.68521461889e-10
-4.91904523771e-11
6.86538769911e-10
-5.43776281482e-11
7.06268613038e-10
-5.9738577574e-11
7.27756260482e-10
-6.52712816612e-11
7.51041936245e-10
-7.09641033346e-11
7.76157347612e-10
-7.67939651999e-11
8.03121666834e-10
-8.27243553683e-11
8.31936961078e-10
-8.87032758109e-11
8.62583113037e-10
-9.46613105005e-11
8.95012342059e-10
-1.00510063147e-10
9.29143521998e-10
-1.06141286498e-10
9.64856595776e-10
-1.11427078915e-10
1.00198749452e-09
-1.16221532334e-10
1.04032406398e-09
-1.2036414658e-10
1.07960354962e-09
-1.23685149721e-10
1.11951216352e-09
-1.2601257367e-10
1.15968711614e-09
-1.27180558372e-10
1.19972124013e-09
-1.27037979595e-10
1.23916998505e-09
-1.25456252155e-10
1.27756021012e-09
-1.2233521699e-10
1.31439997732e-09
-1.17606503271e-10
1.3491886011e-09
-1.11234623632e-10
1.38142657609e-09
-1.03216972274e-10
1.41062550183e-09
-9.35842953659e-11
1.43631843832e-09
-8.2402846063e-11
1.45807124482e-09
-6.97788800179e-11
1.47549574667e-09
-5.5865964764e-11
1.48826588588e-09
-4.0874523858e-11
1.49613687717e-09
-2.50790848641e-11
1.49896408547e-09
-8.81433619722e-12
1.49671551861e-09
7.54658180605e-12
1.48947285199e-09
2.36281783343e-11
1.47742024014e-09
3.90908667573e-11
1.46082468357e-09
5.36582921053e-11
1.44001417121e-09
6.71261728063e-11
1.41535907154e-09
7.93541922354e-11
1.38725892289e-09
9.02497223616e-11
1.35613364021e-09
9.97524886804e-11
1.32241722538e-09
1.07824318304e-10
1.28655257794e-09
1.14443982365e-10
1.24898640928e-09
1.19606227975e-10
1.21016337818e-09
1.23324136839e-10
1.17051893283e-09
1.25633273458e-10
1.13047103255e-09
1.26595415722e-10
1.09041152537e-09
1.26299934435e-10
1.05069819405e-09
1.24861930129e-10
1.01164836311e-09
1.22417343516e-10
9.73534643536e-10
1.19115983971e-10
9.36583021897e-10
1.15113694446e-10
9.00973174635e-10
1.10564793699e-10
8.66840655681e-10
1.05615647223e-10
8.34280482912e-10
1.00399847072e-10
8.03351624121e-10
9.5035132249e-11
7.74081928878e-10
8.96219183866e-11
7.46473137056e-10
8.42431498523e-11
7.20505691872e-10
7.89651274183e-11
6.96143177293e-10
7.38389742264e-11
6.73336276859e-10
6.89024518016e-11
6.52026210851e-10
6.41819033795e-11
6.32147651012e-10
5.96941668875e-11
6.1363114029e-10
5.54483568526e-11
5.96405061267e-10
5.14474589377e-11
5.80397205325e-10
4.76897136246e-11
5.65535996463e-10
4.41697873901e-11
5.51751422418e-10
4.08797436928e-11
5.3897572145e-10
3.78098334671e-11
5.27143868419e-10
3.49491283832e-11
5.16193897796e-10
3.22860204972e-11
5.06067096085e-10
2.98086110301e-11
4.96708090445e-10
2.75050088378e-11
4.88064855919e-10
2.53635569823e-11
4.80088658933e-10
2.33730032491e-11
4.72733951429e-10
2.15226284212e-11
4.65958226266e-10
1.98023440006e-11
4.5972184224e-10
1.82027696089e-11
4.53987824193e-10
1.67152988265e-11
4.48721642305e-10
1.53321613708e-11
4.43890972588e-10
1.40464885833e-11
4.39465440081e-10
1.285238871e-11
4.3541634526e-10
1.17450376662e-11
4.31716374983e-10
1.07207902101e-11
4.28339300251e-10
9.77731468083e-12
4.2525966675e-10
8.91375148211e-12
4.22452489326e-10
8.13088936057e-12
4.19892971621e-10
7.43134227801e-12
4.17556286435e-10
6.81968813565e-12
4.15417474905e-10
6.30249060776e-12
4.1345155171e-10
5.8880497181e-12
4.11633935996e-10
5.58558393046e-12
4.09941334552e-10
5.40327469624e-12
4.08353077519e-10
5.34410092868e-12
4.06852262193e-10
5.39756951224e-12
4.05423726935e-10
5.52485043977e-12
5.63770494643e-12
9.57646914939e-10
1.09098364002e-10
9.82897588353e-10
2.4224791432e-10
9.95771347447e-10
3.03213942879e-10
9.93511888736e-10
3.17373361253e-10
9.79256610249e-10
3.06185676241e-10
9.57100063649e-10
2.83099680312e-10
9.30487895455e-10
2.55549344091e-10
9.01948495552e-10
2.27379691815e-10
8.73216332393e-10
2.00458918058e-10
8.45425048695e-10
1.75600562611e-10
8.19279510213e-10
1.53066973359e-10
7.95188780419e-10
1.32840579617e-10
7.73363101874e-10
1.14769484842e-10
7.53882565432e-10
9.86451730913e-11
7.36744861159e-10
8.42433605879e-11
7.21898043417e-10
7.13447413765e-11
7.09262747781e-10
5.97447615864e-11
6.98747067983e-10
4.92574562017e-11
6.90256368383e-10
3.971614337e-11
6.83699626752e-10
3.0972532214e-11
6.78993415959e-10
2.28951068373e-11
6.76064290153e-10
1.53672586085e-11
6.7485010103e-10
8.28541849623e-12
6.75300602e-10
1.55731803139e-12
6.77377581706e-10
-4.89956159648e-12
6.81054678642e-10
-1.11593046146e-11
6.86317000344e-10
-1.72886941409e-11
6.93160595581e-10
-2.33481188633e-11
7.0159181308e-10
-2.93922555319e-11
7.11626559618e-10
-3.54705371409e-11
7.2328945268e-10
-4.16274019732e-11
7.36612849413e-10
-4.79023142005e-11
7.51635722197e-10
-5.43295416274e-11
7.6840234142e-10
-6.09376715145e-11
7.86960717233e-10
-6.77488421933e-11
8.07360744749e-10
-7.47776673268e-11
8.29651991125e-10
-8.20298329336e-11
8.53881059969e-10
-8.95003564299e-11
8.8008846906e-10
-9.71715149317e-11
9.08304984778e-10
-1.05010479604e-10
9.38547372538e-10
-1.12966737639e-10
9.70813552305e-10
-1.20969445528e-10
1.00507719437e-09
-1.28924937641e-10
1.04128185936e-09
-1.36714708014e-10
1.07933487813e-09
-1.44194279739e-10
1.11910128268e-09
-1.51193452326e-10
1.16039822615e-09
-1.5751843903e-10
1.20299045069e-09
-1.62956328705e-10
1.24658743791e-09
-1.67282089075e-10
1.2908428676e-09
-1.70267950332e-10
1.33535686834e-09
-1.71694501388e-10
1.37968124915e-09
-1.71362298574e-10
1.42332747341e-09
-1.69102411275e-10
1.46577666929e-09
-1.64784345316e-10
1.50649064086e-09
-1.5832040598e-10
1.54492287991e-09
-1.49666793736e-10
1.580529081e-09
-1.38823105795e-10
1.61277737038e-09
-1.25832520176e-10
1.64115882308e-09
-1.10784239089e-10
1.66519881135e-09
-9.38188155563e-11
1.6844702075e-09
-7.51373172573e-11
1.69861061998e-09
-5.50149037408e-11
1.70734493196e-09
-3.38133768537e-11
1.71050924633e-09
-1.19786440617e-11
1.70806737537e-09
9.98844584196e-12
1.70011240822e-09
3.15831260397e-11
1.68685240337e-09
5.23508414e-11
1.66858557251e-09
7.19250841039e-11
1.64567363476e-09
9.00380652396e-11
1.61852074698e-09
1.06507030166e-10
1.58756018196e-09
1.21210234686e-10
1.55324635186e-09
1.34066264699e-10
1.51604918807e-09
1.45021427919e-10
1.47644933889e-09
1.54043778429e-10
1.43493326435e-09
1.61122251464e-10
1.39198717052e-09
1.66270182664e-10
1.34808909227e-09
1.6953130761e-10
1.30369939019e-09
1.70985078342e-10
1.25925073377e-09
1.70748556546e-10
1.21513888297e-09
1.68973752194e-10
1.17171535215e-09
1.65840851385e-10
1.12928260383e-09
1.61548715254e-10
1.08809195875e-09
1.5630432831e-10
1.04834402811e-09
1.5031271881e-10
1.01019121812e-09
1.43768457056e-10
9.73741739276e-10
1.36849330793e-10
9.39064547292e-10
1.29712333699e-10
9.0619471447e-10
1.22491764822e-10
8.75138837213e-10
1.15299044374e-10
8.45880199583e-10
1.08223785502e-10
8.18383514209e-10
1.01335682758e-10
7.9259914402e-10
9.46868474137e-11
7.6846676863e-10
8.83143060228e-11
7.45918501126e-10
8.22424630867e-11
7.24881487315e-10
7.64854004336e-11
7.0528003461e-10
7.10489421629e-11
6.87037324588e-10
6.59324546214e-11
6.70076764667e-10
6.11303784799e-11
6.54323032337e-10
5.6633507156e-11
6.39702861202e-10
5.24300355012e-11
6.26145613033e-10
4.85064070456e-11
6.13583674429e-10
4.4847989041e-11
6.01952711295e-10
4.14396034277e-11
5.91191809085e-10
3.82659395295e-11
5.81243522137e-10
3.53118715451e-11
5.72053851097e-10
3.25627009638e-11
5.63572163833e-10
3.00043413671e-11
5.55751071908e-10
2.76234605617e-11
5.48546272114e-10
2.54075929644e-11
5.41916360071e-10
2.33452333202e-11
5.35822621291e-10
2.14259214758e-11
5.30228803418e-10
1.96403266287e-11
5.2510087268e-10
1.79803384619e-11
5.20406756889e-10
1.64391712903e-11
5.16116077895e-10
1.50114858502e-11
5.1219987726e-10
1.3693530754e-11
5.0863034152e-10
1.2483301442e-11
5.05380537042e-10
1.13807068114e-11
5.02424170555e-10
1.03877204738e-11
4.99735399181e-10
9.50846991777e-12
4.9728872356e-10
8.74917531664e-12
4.95059004955e-10
8.11777605991e-12
4.93021641231e-10
7.62295404774e-12
4.911528791e-10
7.27204190117e-12
4.89430024214e-10
7.06695962644e-12
4.87830652135e-10
6.99694422603e-12
4.86328421269e-10
7.02708289405e-12
7.08454344851e-12
9.5305571023e-10
9.35426452199e-11
9.76924219193e-10
2.18379388139e-10
9.94712615646e-10
2.85425529592e-10
1.00168629292e-09
3.10399667136e-10
9.98459880466e-10
3.09412071412e-10
9.8743230853e-10
2.94127234618e-10
9.71137207239e-10
2.71844427474e-10
9.51700224695e-10
2.4681665619e-10
9.30747141629e-10
2.21411982684e-10
9.09460834593e-10
1.96886850908e-10
8.88672083963e-10
1.73855704922e-10
8.6894560835e-10
1.52567035801e-10
8.50650953049e-10
1.33064120325e-10
8.34017591788e-10
1.1527851412e-10
8.19176510792e-10
9.90844209192e-11
8.06191050586e-10
8.43301804723e-11
7.95079510812e-10
7.08562797974e-11
7.85831562472e-10
5.85053825279e-11
7.78420061155e-10
4.71276222301e-11
7.72809473179e-10
3.65830973066e-11
7.6896182254e-10
2.67427341943e-11
7.66840831783e-10
1.74882257233e-11
7.66414751797e-10
8.71147452922e-12
7.67658241734e-10
3.13803894525e-13
7.70553555342e-10
-7.79489956975e-12
7.75091220336e-10
-1.56969940437e-11
7.81270359315e-10
-2.34678575097e-11
7.89098720081e-10
-3.11765038391e-11
7.98592477444e-10
-3.8886036767e-11
8.0977583863e-10
-4.6653921683e-11
8.22680464646e-10
-5.45320506239e-11
8.37344703674e-10
-6.25665749144e-11
8.53812618826e-10
-7.07974772613e-11
8.72132780646e-10
-7.9257852332e-11
8.92356784083e-10
-8.79728628386e-11
9.14537440368e-10
-9.69583387e-11
9.38726586273e-10
-1.06218991456e-10
9.64972447762e-10
-1.15746227696e-10
9.93316492851e-10
-1.25515566571e-10
1.0237897122e-09
-1.35483701882e-10
1.05640827807e-09
-1.45585302424e-10
1.09116855761e-09
-1.55729719578e-10
1.12804149963e-09
-1.657978694e-10
1.16696648196e-09
-1.75639674979e-10
1.20784480336e-09
-1.85072580376e-10
1.25053313214e-09
-1.93881754733e-10
1.29483737532e-09