/*--------------------------------*- C++ -*----------------------------------*\
  =========                 |
  \\      /  F ield         | OpenFOAM: The Open Source CFD Toolbox
   \\    /   O peration     | Website:  https://openfoam.org
    \\  /    A nd           | Version:  7
     \\/     M anipulation  |
\*---------------------------------------------------------------------------*/
FoamFile
{
    version     2.0;
    format      ascii;
    class       volVectorField;
    location    "540";
    object      U;
}
// * * * * * * * * * * * * * * * * * * * * * * * * * * * * * * * * * * * * * //

dimensions      [0 1 -1 0 0 0 0];

internalField   nonuniform List<vector> 
8192
(
(0.00104344513102 0.000156554868981 0)
(0.000759274179891 0.000127616076779 0)
(0.000549259502167 8.23985904489e-05 0)
(0.000414023194324 5.28377072783e-05 0)
(0.000326260631548 3.49248453569e-05 0)
(0.000267316047198 2.40197285486e-05 0)
(0.000226118702391 1.71776055923e-05 0)
(0.0001962264564 1.27146296025e-05 0)
(0.000173827947906 9.68386802459e-06 0)
(0.000156598239515 7.5458294617e-06 0)
(0.000143067369122 5.98503000417e-06 0)
(0.000132271361578 4.81096659764e-06 0)
(0.000123555784191 3.90459983513e-06 0)
(0.000116462204044 3.18896934964e-06 0)
(0.00011066054754 2.61267619259e-06 0)
(0.00010590752053 2.14033987187e-06 0)
(0.000102020247361 1.74692238797e-06 0)
(9.88590619161e-05 1.41425221621e-06 0)
(9.63159646214e-05 1.12883434449e-06 0)
(9.43066868215e-05 8.80432876187e-07 0)
(9.27651132975e-05 6.61130281735e-07 0)
(9.16392847059e-05 4.64688224981e-07 0)
(9.08884828896e-05 2.86103867087e-07 0)
(9.04810740467e-05 1.21295702947e-07 0)
(9.03928924416e-05 -3.31228163847e-08 0)
(9.06060159134e-05 -1.80008703942e-07 0)
(9.11078286014e-05 -3.21811233799e-07 0)
(9.18902973509e-05 -4.60663823988e-07 0)
(9.29494089217e-05 -5.98452958093e-07 0)
(9.42847266593e-05 -7.36868723044e-07 0)
(9.58990335637e-05 -8.77440674886e-07 0)
(9.77980346105e-05 -1.02156121784e-06 0)
(9.99900943025e-05 -1.17049746551e-06 0)
(0.000102485986665 -1.32539181309e-06 0)
(0.000105298634575 -1.48725071171e-06 0)
(0.000108442813935 -1.65692072525e-06 0)
(0.000111934795924 -1.83505056869e-06 0)
(0.000115791898046 -2.02203784572e-06 0)
(0.00012003191233 -2.21795949271e-06 0)
(0.000124672378108 -2.42248587944e-06 0)
(0.000129729668206 -2.6347801574e-06 0)
(0.000135217863323 -2.85338706509e-06 0)
(0.000141147401297 -3.07611905036e-06 0)
(0.000147523508314 -3.29995204644e-06 0)
(0.000154344448486 -3.52094811579e-06 0)
(0.000161599666774 -3.734226094e-06 0)
(0.000169267943841 -3.93400293797e-06 0)
(0.000177315723735 -4.11372514532e-06 0)
(0.000185695804264 -4.26630008462e-06 0)
(0.000194346582825 -4.38442005747e-06 0)
(0.000203192014143 -4.460950204e-06 0)
(0.0002121423568 -4.4893293316e-06 0)
(0.000221095670866 -4.46392023294e-06 0)
(0.000229939907538 -4.38025132597e-06 0)
(0.000238555345185 -4.2351214696e-06 0)
(0.000246817117692 -4.02658739268e-06 0)
(0.000254597667961 -3.75390146612e-06 0)
(0.000261769119737 -3.41749221246e-06 0)
(0.000268205742306 -3.01907669564e-06 0)
(0.000273786838001 -2.56197089958e-06 0)
(0.000278400466866 -2.05161651566e-06 0)
(0.000281948336367 -1.49621916582e-06 0)
(0.000284351771277 -9.07190372975e-07 0)
(0.00028555793254 -2.98954554298e-07 0)
(0.000285544742685 3.12151377573e-07 0)
(0.000284322886926 9.09701917691e-07 0)
(0.000281934052701 1.47912060091e-06 0)
(0.000278445839266 2.00907229705e-06 0)
(0.00027394484062 2.49189757392e-06 0)
(0.000268529762982 2.92314378728e-06 0)
(0.000262305963064 3.30061321138e-06 0)
(0.00025538189482 3.62340641775e-06 0)
(0.000247867187422 3.89124769622e-06 0)
(0.000239871723057 4.1041597799e-06 0)
(0.000231505065559 4.2624383289e-06 0)
(0.000222875726994 4.36683944421e-06 0)
(0.0002140899569 4.41886954559e-06 0)
(0.00020524997305 4.4210539052e-06 0)
(0.000196451781737 4.37707866544e-06 0)
(0.000187782892831 4.29175397524e-06 0)
(0.00017932028025 4.17080552609e-06 0)
(0.000171128879413 4.02054597376e-06 0)
(0.000163260792823 3.84749545552e-06 0)
(0.000155755239905 3.65801676224e-06 0)
(0.000148639174136 3.45801294138e-06 0)
(0.000141928416774 3.25271303944e-06 0)
(0.000135629126033 3.04655096583e-06 0)
(0.000129739425258 2.84312759004e-06 0)
(0.000124251042039 2.64523774058e-06 0)
(0.000119150849168 2.45494132541e-06 0)
(0.000114422238488 2.27365936216e-06 0)
(0.000110046293192 2.10227944453e-06 0)
(0.000106002750807 1.94125964352e-06 0)
(0.000102270766882 1.79072385461e-06 0)
(9.88295001405e-05 1.65054501379e-06 0)
(9.56585446412e-05 1.52041485598e-06 0)
(9.27382355083e-05 1.39990059734e-06 0)
(9.00498532567e-05 1.28848964215e-06 0)
(8.75757489857e-05 1.18562402427e-06 0)
(8.5299409323e-05 1.09072619665e-06 0)
(8.32054767033e-05 1.00321792243e-06 0)
(8.12797373948e-05 9.22533621756e-07 0)
(7.95090870069e-05 8.48129555091e-07 0)
(7.78814808564e-05 7.79489771152e-07 0)
(7.63858746953e-05 7.16129805154e-07 0)
(7.50121597152e-05 6.57598697446e-07 0)
(7.37510945027e-05 6.03480029142e-07 0)
(7.25942355618e-05 5.5339231485e-07 0)
(7.15338671609e-05 5.06989288645e-07 0)
(7.05629304704e-05 4.6396032574e-07 0)
(6.96749512146e-05 4.24031507056e-07 0)
(6.88639642628e-05 3.86967615272e-07 0)
(6.81244326541e-05 3.52575705625e-07 0)
(6.74511573578e-05 3.20710798901e-07 0)
(6.6839172452e-05 2.9128477035e-07 0)
(6.62836180809e-05 2.64279682852e-07 0)
(6.57795800975e-05 2.39767767297e-07 0)
(6.5321879994e-05 2.17941156011e-07 0)
(6.49047903038e-05 1.99156676804e-07 0)
(6.45216369488e-05 1.84004115303e-07 0)
(6.41642271623e-05 1.73412377414e-07 0)
(6.38220032828e-05 1.68817458731e-07 0)
(6.34807598415e-05 1.72431182617e-07 0)
(6.31206691369e-05 1.87663979634e-07 0)
(6.27132788937e-05 2.19730018096e-07 0)
(6.22174165628e-05 2.76135412813e-07 0)
(6.15761828006e-05 3.65100729849e-07 0)
(6.07425724228e-05 4.68511259863e-07 0)
(0.00121015552579 0.000302954206997 0)
(0.00116028607786 0.000315257117108 0)
(0.00102697099114 0.000238087283911 0)
(0.0008877058769 0.000171650405759 0)
(0.000767311472219 0.000124269083811 0)
(0.000669254471885 9.16770434658e-05 0)
(0.00059082186263 6.91502128742e-05 0)
(0.00052817994477 5.32761539735e-05 0)
(0.00047788572305 4.18150414647e-05 0)
(0.000437199636818 3.33304181038e-05 0)
(0.000404033125162 2.68977907644e-05 0)
(0.000376814321494 2.19129843113e-05 0)
(0.000354359526597 1.79729215866e-05 0)
(0.00033577121396 1.48025075012e-05 0)
(0.000320362358952 1.22096166428e-05 0)
(0.000307601725153 1.00570273438e-05 0)
(0.000297074582352 8.24461809588e-06 0)
(0.000288454438036 6.69785367825e-06 0)
(0.000281482547311 5.36018863221e-06 0)
(0.000275952917013 4.18795489021e-06 0)
(0.000271701213149 3.14685451585e-06 0)
(0.00026859646629 2.20950916956e-06 0)
(0.000266534803677 1.35371819348e-06 0)
(0.000265434665623 5.6120050794e-07 0)
(0.000265233120633 -1.83327081966e-07 0)
(0.000265883000987 -8.92832257323e-07 0)
(0.000267350654725 -1.57847564398e-06 0)
(0.000269614164119 -2.24999620431e-06 0)
(0.000272661916795 -2.91600011079e-06 0)
(0.000276491438043 -3.58417196561e-06 0)
(0.000281108409428 -4.26142270508e-06 0)
(0.000286525809765 -4.95398253685e-06 0)
(0.000292763120504 -5.66744290521e-06 0)
(0.000299845540062 -6.40674833044e-06 0)
(0.000307803151329 -7.17613644553e-06 0)
(0.000316669984452 -7.97902289583e-06 0)
(0.000326482913792 -8.81782680851e-06 0)
(0.000337280324931 -9.69373292002e-06 0)
(0.000349100486181 -1.06063883266e-05 0)
(0.000361979561468 -1.15535361871e-05 0)
(0.000375949210182 -1.25305958986e-05 0)
(0.000391033738044 -1.35302102326e-05 0)
(0.000407246794292 -1.45417943933e-05 0)
(0.000424587657606 -1.55511394759e-05 0)
(0.000443037216734 -1.65401405654e-05 0)
(0.000462553829537 -1.74867336223e-05 0)
(0.000483069327848 -1.83651284033e-05 0)
(0.000504485510858 -1.91464095878e-05 0)
(0.000526671515576 -1.97995382394e-05 0)
(0.000549462445891 -2.02927197038e-05 0)
(0.00057265956192 -2.05950199593e-05 0)
(0.00059603217406 -2.06780313954e-05 0)
(0.000619321170788 -2.05173431057e-05 0)
(0.000642243887231 -2.00935952477e-05 0)
(0.000664499866842 -1.9393010709e-05 0)
(0.000685777054179 -1.84074790231e-05 0)
(0.000705758111332 -1.71344464979e-05 0)
(0.000724126829556 -1.55769578393e-05 0)
(0.000740574910982 -1.37441704032e-05 0)
(0.000754809628739 -1.16525638465e-05 0)
(0.000766562961499 -9.3278792308e-06 0)
(0.000775602592722 -6.80737461238e-06 0)
(0.000781744428715 -4.14124867047e-06 0)
(0.000784865020739 -1.39161908439e-06 0)
(0.000784911102808 1.3719269294e-06 0)
(0.000781903370871 4.07949031733e-06 0)
(0.000775933052876 6.66843465849e-06 0)
(0.000767152063936 9.08888640437e-06 0)
(0.000755759438865 1.13056105922e-05 0)
(0.000741987389687 1.329644105e-05 0)
(0.000726089556645 1.50488151663e-05 0)
(0.000708332484151 1.65561971978e-05 0)
(0.000688990005026 1.78154842745e-05 0)
(0.000668339544124 1.88256813129e-05 0)
(0.000646659249383 1.95876970861e-05 0)
(0.000624225039006 2.01049560195e-05 0)
(0.000601306976049 2.03844137711e-05 0)
(0.000578164798945 2.04375025138e-05 0)
(0.0005550428578 2.0280601023e-05 0)
(0.000532165003129 1.99348224433e-05 0)
(0.000509730069491 1.94251410109e-05 0)
(0.000487908502282 1.87790480779e-05 0)
(0.000466840463439 1.80250010895e-05 0)
(0.000446635503768 1.71909193457e-05 0)
(0.000427373672038 1.63029170534e-05 0)
(0.000409107780406 1.53843806152e-05 0)
(0.000391866472943 1.44554174807e-05 0)
(0.000375657739071 1.35326442784e-05 0)
(0.00036047255717 1.2629246731e-05 0)
(0.000346288422656 1.17552314805e-05 0)
(0.000333072591085 1.0917793559e-05 0)
(0.000320784936802 1.01217363409e-05 0)
(0.000309380384842 9.36989709215e-06 0)
(0.000298810915574 8.66354714872e-06 0)
(0.000289027169284 8.00274894448e-06 0)
(0.000279979693568 7.38666209774e-06 0)
(0.000271619883413 6.8137975402e-06 0)
(0.000263900664547 6.28222287162e-06 0)
(0.000256776967742 5.78972436679e-06 0)
(0.000250206036591 5.33393193628e-06 0)
(0.00024414760542 4.91241341384e-06 0)
(0.000238563977862 4.52274405836e-06 0)
(0.000233420031029 4.16255653031e-06 0)
(0.000228683165059 3.82957579567e-06 0)
(0.000224323213423 3.52164275456e-06 0)
(0.000220312325599 3.2367296799e-06 0)
(0.000216624830537 2.97295009717e-06 0)
(0.000213237086643 2.72856524001e-06 0)
(0.000210127321704 2.50198901123e-06 0)
(0.000207275464134 2.29179312096e-06 0)
(0.000204662965004 2.09671412716e-06 0)
(0.000202272608489 1.91566411188e-06 0)
(0.000200088306352 1.747747092e-06 0)
(0.000198094869924 1.59228364327e-06 0)
(0.000196277750455 1.4488470695e-06 0)
(0.000194622735656 1.31731549055e-06 0)
(0.000193115586603 1.19794601058e-06 0)
(0.000191741595122 1.09147950655e-06 0)
(0.000190485037823 9.99288242144e-07 0)
(0.000189328501183 9.2358332068e-07 0)
(0.000188252057747 8.67704963922e-07 0)
(0.000187232300541 8.36522286618e-07 0)
(0.000186241326573 8.36957846961e-07 0)
(0.000185245990509 8.78575937468e-07 0)
(0.000184208361445 9.73847007958e-07 0)
(0.000183089852011 1.13639765885e-06 0)
(0.000181866088376 1.36984121367e-06 0)
(0.000180557568623 1.60590425795e-06 0)
(0.00122477784437 0.000268020826538 0)
(0.00124109903578 0.000383738723589 0)
(0.00119628451704 0.000347735242875 0)
(0.00111369653062 0.000283855507775 0)
(0.00102095985778 0.000225195019003 0)
(0.000931770614274 0.000177997310862 0)
(0.000851550819652 0.000141482307454 0)
(0.000781685706652 0.000113451047925 0)
(0.000721798886817 9.18211464374e-05 0)
(0.000670858782797 7.4950460507e-05 0)
(0.000627682909954 6.16200897625e-05 0)
(0.0005911492052 5.09431504219e-05 0)
(0.000560270858145 4.22758539081e-05 0)
(0.000534210738034 3.51479642215e-05 0)
(0.000512271338312 2.92123708014e-05 0)
(0.000493876625611 2.42095757518e-05 0)
(0.000478552883422 1.99429107562e-05 0)
(0.000465911319932 1.62612250401e-05 0)
(0.000455633269224 1.30467152086e-05 0)
(0.000447457994714 1.02062901081e-05 0)
(0.00044117279809 7.66537747828e-06 0)
(0.000436605059086 5.36343073476e-06 0)
(0.000433615846808 3.2506314639e-06 0)
(0.000432094791147 1.2854425265e-06 0)
(0.000431955956319 -5.67225681711e-07 0)
(0.000433134505898 -2.33739751561e-06 0)
(0.000435583989641 -4.05107882487e-06 0)
(0.000439274117766 -5.73105798305e-06 0)
(0.000444188910546 -7.39750711437e-06 0)
(0.000450325126483 -9.06842070763e-06 0)
(0.000457690885762 -1.07599177225e-05 0)
(0.000466304413393 -1.24864223653e-05 0)
(0.000476192830298 -1.42607305948e-05 0)
(0.000487390921462 -1.60939633981e-05 0)
(0.000499939808713 -1.79954032374e-05 0)
(0.000513885452871 -1.99722071537e-05 0)
(0.000529276906572 -2.20289889074e-05 0)
(0.000546164236828 -2.4167264205e-05 0)
(0.000564596036998 -2.63847582907e-05 0)
(0.000584616454048 -2.86745854402e-05 0)
(0.000606261671791 -3.10243263431e-05 0)
(0.00062955581819 -3.34150530579e-05 0)
(0.000654506308083 -3.58203820612e-05 0)
(0.000681098695276 -3.82056717537e-05 0)
(0.000709291189821 -4.05275164695e-05 0)
(0.000739009094487 -4.27337149936e-05 0)
(0.000770139518204 -4.47638947077e-05 0)
(0.000802526816547 -4.655093698e-05 0)
(0.000835969264047 -4.80232633385e-05 0)
(0.000870217452256 -4.91079029187e-05 0)
(0.000904974806158 -4.97340879866e-05 0)
(0.000939900413404 -4.98369579537e-05 0)
(0.000974614087977 -4.93608597127e-05 0)
(0.00100870330427 -4.82617830225e-05 0)
(0.00104173143148 -4.65087046243e-05 0)
(0.00107324666753 -4.40839903403e-05 0)
(0.00110279125761 -4.09833751748e-05 0)
(0.00112991092369 -3.72162212597e-05 0)
(0.00115416478847 -3.28066801428e-05 0)
(0.00117513633158 -2.77961651196e-05 0)
(0.00119244602582 -2.22471819784e-05 0)
(0.00120576612752 -1.62477118091e-05 0)
(0.00121483727386 -9.91383319282e-06 0)
(0.0012194849157 -3.38724156136e-06 0)
(0.00121963197905 3.17439676108e-06 0)
(0.00121530394812 9.61274269648e-06 0)
(0.00120662443583 1.57849400931e-05 0)
(0.00119380229848 2.15754053185e-05 0)
(0.00117711384723 2.69000395672e-05 0)
(0.00115688451869 3.17032381808e-05 0)
(0.00113347327446 3.59509241816e-05 0)
(0.00110726094903 3.96232992929e-05 0)
(0.0010786420757 4.27095360892e-05 0)
(0.00104801898178 4.52049780352e-05 0)
(0.00101579689033 4.71105765025e-05 0)
(0.000982378975428 4.84339918927e-05 0)
(0.000948160671483 4.9191538537e-05 0)
(0.000913523035064 4.94099920349e-05 0)
(0.000878825486634 4.91274117799e-05 0)
(0.000844398632038 4.83925440063e-05 0)
(0.000810537976073 4.72628463854e-05 0)
(0.000777499213399 4.58015255997e-05 0)
(0.000745495511496 4.40741339435e-05 0)
(0.000714696889183 4.2145255177e-05 0)
(0.000685231522281 4.00756837034e-05 0)
(0.000657188618397 3.79203301779e-05 0)
(0.000630622409152 3.57269216058e-05 0)
(0.000605556798108 3.35354375199e-05 0)
(0.000581990253261 3.13781471904e-05 0)
(0.000559900616402 2.92800827463e-05 0)
(0.000539249595634 2.72597872241e-05 0)
(0.000519986795269 2.53302009415e-05 0)
(0.000502053210921 2.3499582244e-05 0)
(0.000485384173044 2.17723912226e-05 0)
(0.00046991176068 2.01500931053e-05 0)
(0.000455566730707 1.86318596123e-05 0)
(0.000442280020232 1.72151620317e-05 0)
(0.000429983883721 1.58962595723e-05 0)
(0.000418612725143 1.46705924335e-05 0)
(0.000408103680701 1.35330916169e-05 0)
(0.000398397001378 1.24784184347e-05 0)
(0.000389436277546 1.15011460384e-05 0)
(0.000381168540981 1.05958943855e-05 0)
(0.000373544273161 9.75742847994e-06 0)
(0.000366517342959 8.98072852063e-06 0)
(0.000360044891716 8.26103905735e-06 0)
(0.000354087179349 7.59390334422e-06 0)
(0.000348607401317 6.97518793381e-06 0)
(0.000343571483048 6.40110209811e-06 0)
(0.000338947855581 5.86821597783e-06 0)
(0.000334707213646 5.37348138149e-06 0)
(0.000330822255083 4.91425895119e-06 0)
(0.000327267398383 4.48835593038e-06 0)
(0.00032401847306 4.09407908866e-06 0)
(0.000321052375834 3.73030842675e-06 0)
(0.000318346684186 3.3965981549e-06 0)
(0.000315879218576 3.09331294961e-06 0)
(0.000313627546416 2.82180841669e-06 0)
(0.000311568427335 2.58466510066e-06 0)
(0.000309677214758 2.38598216985e-06 0)
(0.00030792726249 2.23172535518e-06 0)
(0.000306289453692 2.13008845998e-06 0)
(0.000304732105295 2.09173164637e-06 0)
(0.000303221760054 2.12949814087e-06 0)
(0.000301725839957 2.25648567615e-06 0)
(0.000300218876573 2.47924045846e-06 0)
(0.000298693718795 2.77592552652e-06 0)
(0.000297169965383 3.03209637657e-06 0)
(0.00122194134673 0.000221301625426 0)
(0.00125347200452 0.000382606045437 0)
(0.00125130445142 0.000395849953189 0)
(0.00121388150939 0.000355751686567 0)
(0.00115622620066 0.000303690781792 0)
(0.00109073679116 0.00025418016012 0)
(0.00102487916525 0.00021137683708 0)
(0.000962606126054 0.000175694628348 0)
(0.000905735961709 0.000146334507632 0)
(0.0008548834855 0.000122229636602 0)
(0.000810025016636 0.000102375212057 0)
(0.000770824495204 8.59222106044e-05 0)
(0.000736815170671 7.21844212033e-05 0)
(0.000707497220844 6.06174223507e-05 0)
(0.000682387627036 5.07918613029e-05 0)
(0.00066104351229 4.23688674481e-05 0)
(0.000643071092012 3.50797359888e-05 0)
(0.000628127097757 2.87099118153e-05 0)
(0.000615916493774 2.30866373016e-05 0)
(0.000606188575411 1.8069515125e-05 0)
(0.000598732562326 1.35433166444e-05 0)
(0.000593373253872 9.41249395034e-06 0)
(0.000589967012759 5.59697726279e-06 0)
(0.000588398179453 2.02894230688e-06 0)
(0.000588575933334 -1.34968658191e-06 0)
(0.000590431569827 -4.58916305312e-06 0)
(0.000593916144797 -7.73341024233e-06 0)
(0.000598998432132 -1.08211776662e-05 0)
(0.000605663131487 -1.38869120811e-05 0)
(0.000613909261457 -1.69613904608e-05 0)
(0.000623748675235 -2.00721455101e-05 0)
(0.000635204634308 -2.32437007541e-05 0)
(0.000648310373308 -2.64976218521e-05 0)
(0.000663107585695 -2.98523829261e-05 0)
(0.000679644755515 -3.33230407082e-05 0)
(0.000697975255788 -3.6920705897e-05 0)
(0.00071815512979 -4.06518006534e-05 0)
(0.000740240469248 -4.45170951047e-05 0)
(0.000764284304982 -4.85105255343e-05 0)
(0.00079033293361 -5.26178146044e-05 0)
(0.00081842162176 -5.68149415492e-05 0)
(0.000848569660865 -6.10665489129e-05 0)
(0.000880774794843 -6.53244221775e-05 0)
(0.000915007113252 -6.95262354876e-05 0)
(0.000951202594723 -7.35948129598e-05 0)
(0.000989256596341 -7.74381949804e-05 0)
(0.00102901770383 -8.09508024172e-05 0)
(0.0010702824658 -8.40159329588e-05 0)
(0.00111279160416 -8.65096844436e-05 0)
(0.0011562282885 -8.83061747234e-05 0)
(0.00120021895291 -8.92836456691e-05 0)
(0.00124433690673 -8.93307653639e-05 0)
(0.00128810866543 -8.83522849027e-05 0)
(0.00133102257218 -8.62732782969e-05 0)
(0.001372539008 -8.30415709945e-05 0)
(0.00141210142723 -7.86285825183e-05 0)
(0.00144914767331 -7.30294307361e-05 0)
(0.00148312144974 -6.6263431996e-05 0)
(0.0015134842403 -5.83759647445e-05 0)
(0.00153972824718 -4.94422907177e-05 0)
(0.0015613910936 -3.95734812216e-05 0)
(0.00157807304943 -2.89233815426e-05 0)
(0.00158945676472 -1.76929663544e-05 0)
(0.00159532738458 -6.1263427317e-06 0)
(0.00159558846015 5.50535463576e-06 0)
(0.00159026854764 1.69296928704e-05 0)
(0.00157951585855 2.79001267146e-05 0)
(0.00156358235848 3.8215764948e-05 0)
(0.00154280199838 4.77283767009e-05 0)
(0.0015175687023 5.63373910863e-05 0)
(0.00148831808394 6.39784828922e-05 0)
(0.00145551403072 7.0611955509e-05 0)
(0.00141963921736 7.62143937641e-05 0)
(0.00138118798643 8.07742669562e-05 0)
(0.00134066019416 8.42909911663e-05 0)
(0.0012985548906 8.67766170859e-05 0)
(0.00125536305764 8.82588764213e-05 0)
(0.0012115591992 8.87839828818e-05 0)
(0.0011675922232 8.84177894599e-05 0)
(0.00112387649848 8.72446020322e-05 0)
(0.00108078407446 8.5363738641e-05 0)
(0.00103863886708 8.28844887084e-05 0)
(0.00099771327367 7.99203671738e-05 0)
(0.000958227307997 7.65835269071e-05 0)
(0.000920350032963 7.29799867329e-05 0)
(0.000884202856374 6.92060558537e-05 0)
(0.000849864155832 6.53460686835e-05 0)
(0.000817374694761 6.14713393761e-05 0)
(0.000786743354098 5.76401205024e-05 0)
(0.000757952801659 5.38983001161e-05 0)
(0.000730964828131 5.02805761119e-05 0)
(0.000705725177769 4.68118841407e-05 0)
(0.000682167784264 4.35089065065e-05 0)
(0.000660218384759 4.03815410725e-05 0)
(0.000639797528769 3.74342544007e-05 0)
(0.000620823026384 3.46672785167e-05 0)
(0.000603211895455 3.20776364937e-05 0)
(0.000586881873535 2.96599987645e-05 0)
(0.000571752560403 2.74073826542e-05 0)
(0.000557746253075 2.53117126408e-05 0)
(0.000544788529204 2.33642612216e-05 0)
(0.000532808627702 2.15559897796e-05 0)
(0.000521739668267 1.987780792e-05 0)
(0.000511518744527 1.83207674238e-05 0)
(0.000502086919193 1.68762052977e-05 0)
(0.000493389143898 1.55358479366e-05 0)
(0.000485374121448 1.42918870512e-05 0)
(0.000477994123845 1.31370360381e-05 0)
(0.000471204775755 1.20645747271e-05 0)
(0.000464964809863 1.1068389103e-05 0)
(0.000459235797815 1.01430125058e-05 0)
(0.000453981858123 9.28367408656e-06 0)
(0.000449169340492 8.48636075914e-06 0)
(0.000444766484613 7.74789862213e-06 0)
(0.000440743050777 7.06606055564e-06 0)
(0.00043706992008 6.43970632398e-06 0)
(0.000433718664333 5.86896136441e-06 0)
(0.00043066109129 5.35543762315e-06 0)
(0.000427868781847 4.90249395368e-06 0)
(0.000425312655971 4.51551834563e-06 0)
(0.000422962639299 4.20218167954e-06 0)
(0.000420787561008 3.97253973831e-06 0)
(0.000418755506664 3.83870059304e-06 0)
(0.000416834981771 3.81341383987e-06 0)
(0.000414997377009 3.90610635749e-06 0)
(0.00041322106942 4.11289921637e-06 0)
(0.00041149567367 4.39282576144e-06 0)
(0.00040981644903 4.61817725617e-06 0)
(0.00121696314805 0.000182397120656 0)
(0.00124923554104 0.00035770746902 0)
(0.00126605203986 0.000406099543488 0)
(0.00125659525265 0.000392381785423 0)
(0.00122663573692 0.000354675466629 0)
(0.00118447679911 0.000310843780806 0)
(0.00113666065815 0.000268386940717 0)
(0.00108755527589 0.000230062903015 0)
(0.00103984196017 0.000196549669334 0)
(0.000995047152078 0.000167661714983 0)
(0.000953951096527 0.000142897613312 0)
(0.000916870388007 0.000121680993931 0)
(0.000883844366973 0.000103460937451 0)
(0.000854754799909 8.77483763504e-05 0)
(0.000829401189861 7.41240638558e-05 0)
(0.000807547258136 6.22346634101e-05 0)
(0.000788948977342 5.17845925176e-05 0)
(0.000773370938976 4.25270387532e-05 0)
(0.000760595429419 3.42555742495e-05 0)
(0.000750427008822 2.67968670828e-05 0)
(0.000742694365124 2.00045711469e-05 0)
(0.000737250558991 1.37543036029e-05 0)
(0.000733972355865 7.93956150424e-06 0)
(0.000732759073799 2.46842341053e-06 0)
(0.000733531205683 -2.7391028843e-06 0)
(0.000736228961271 -7.75318735735e-06 0)
(0.000740810812769 -1.26358596618e-05 0)
(0.000747252084492 -1.74423328754e-05 0)
(0.000755543587312 -2.22220024732e-05 0)
(0.000765690281948 -2.70191654401e-05 0)
(0.000777709942664 -3.18734825593e-05 0)
(0.000791631780869 -3.68201946605e-05 0)
(0.000807494978206 -4.18900934288e-05 0)
(0.00082534706986 -4.71092392709e-05 0)
(0.000845242110559 -5.24984127259e-05 0)
(0.000867238548352 -5.80722829287e-05 0)
(0.000891396725087 -6.38382776332e-05 0)
(0.000917775919053 -6.97951462371e-05 0)
(0.000946430845906 -7.59312222116e-05 0)
(0.000977407541668 -8.22224171998e-05 0)
(0.00101073856925 -8.86300183831e-05 0)
(0.00104643752186 -9.50984155415e-05 0)
(0.00108449284743 -0.000101552954179 0)
(0.00112486109126 -0.000107898191577 0)
(0.001167459753 -0.000114016912299 0)
(0.00121216007538 -0.000119770318021 0)
(0.00125878021779 -0.000124999813869 0)
(0.00130707939744 -0.000129530734232 0)
(0.0013567536727 -0.000133178155081 0)
(0.00140743405641 -0.0001357546186 0)
(0.00145868753898 -0.000137079184796 0)
(0.00151002134801 -0.000136986816415 0)
(0.00156089038411 -0.000135336849442 0)
(0.00161070732491 -0.00013201937807 0)
(0.00165885451996 -0.000126958917703 0)
(0.00170469669019 -0.000120115642933 0)
(0.0017475937134 -0.000111485462849 0)
(0.00178691332987 -0.000101100625397 0)
(0.0018220441217 -8.90321997896e-05 0)
(0.00185240939721 -7.53952017564e-05 0)
(0.00187748287456 -6.03567794073e-05 0)
(0.00189680744483 -4.41465204491e-05 0)
(0.00191001776835 -2.7063805772e-05 0)
(0.00191686461609 -9.47294086666e-06 0)
(0.00191723494661 8.22054578238e-06 0)
(0.00191116055719 2.56087727075e-05 0)
(0.00189881157897 4.23226554038e-05 0)
(0.00188047675117 5.80614806842e-05 0)
(0.00185653686706 7.2602800748e-05 0)
(0.00182743887536 8.57941331988e-05 0)
(0.00179367551643 9.75355829771e-05 0)
(0.00175577124038 0.000107763039752 0)
(0.00171427255397 0.000116436657968 0)
(0.00166974067413 0.000123534959168 0)
(0.00162274495182 0.000129053659325 0)
(0.00157385586397 0.000133008189346 0)
(0.00152363667904 0.000135438177123 0)
(0.00147263357784 0.000136411505518 0)
(0.00142136483707 0.000136025858076 0)
(0.00137031022043 0.000134406761776 0)
(0.00131990179658 0.00013170232759 0)
(0.00127051712425 0.000128075694954 0)
(0.00122247530588 0.00012369650331 0)
(0.00117603596578 0.000118732642281 0)
(0.0011314008514 0.000113343221364 0)
(0.0010887175287 0.000107673295377 0)
(0.0010480845485 0.000101850498232 0)
(0.00100955747392 9.59834463119e-05 0)
(0.000973155242198 9.01615982079e-05 0)
(0.000938866450514 8.44561890727e-05 0)
(0.000906655276266 7.89218665895e-05 0)
(0.000876466850657 7.35987092486e-05 0)
(0.000848231992135 6.8514379874e-05 0)
(0.000821871271592 6.36862399521e-05 0)
(0.000797298426433 5.91233136117e-05 0)
(0.000774423168996 5.48280398663e-05 0)
(0.000753153450619 5.07977881246e-05 0)
(0.000733397249145 4.70261363513e-05 0)
(0.000715063948084 4.35039265266e-05 0)
(0.000698065372075 4.02201201824e-05 0)
(0.000682316537516 3.71624804435e-05 0)
(0.000667736170377 3.4318107296e-05 0)
(0.000654247036084 3.1673851569e-05 0)
(0.000641776119379 2.92166306246e-05 0)
(0.000630254685673 2.69336661951e-05 0)
(0.000619618249506 2.48126619411e-05 0)
(0.000609806470632 2.28419359646e-05 0)
(0.000600762993725 2.10105211898e-05 0)
(0.000592435243844 1.93082449013e-05 0)
(0.000584774186517 1.77257971693e-05 0)
(0.000577734058559 1.62547970216e-05 0)
(0.000571272073531 1.48878643253e-05 0)
(0.000565348104108 1.36187049895e-05 0)
(0.000559924342618 1.24422164842e-05 0)
(0.000554964940955 1.13546201625e-05 0)
(0.00055043563215 1.03536253725e-05 0)
(0.000546303338881 9.43862760662e-06 0)
(0.000542535779889 8.61093674777e-06 0)
(0.000539101095006 7.87401947629e-06 0)
(0.000535967525156 7.23371578797e-06 0)
(0.000533103207258 6.69834289983e-06 0)
(0.000530476177034 6.27850792579e-06 0)
(0.000528054712132 5.98626932652e-06 0)
(0.000525808173151 5.83292346242e-06 0)
(0.000523708423725 5.82396226556e-06 0)
(0.000521731417416 5.94836549178e-06 0)
(0.000519856633042 6.15754500019e-06 0)
(0.000518057713717 6.33160504341e-06 0)
(0.00121289402556 0.000152539936713 0)
(0.00124194848211 0.000326237772009 0)
(0.00126634811891 0.000396353063153 0)
(0.00127314127116 0.000404791859352 0)
(0.00126257183935 0.000382794298181 0)
(0.0012392682713 0.00034818741203 0)
(0.00120805629383 0.000310071384027 0)
(0.00117275929024 0.000272780800982 0)
(0.00113610548989 0.000238198842256 0)
(0.0010999304839 0.000206982310317 0)
(0.0010654109177 0.000179192593207 0)
(0.00103325970601 0.000154617886989 0)
(0.00100387320467 0.000132936518703 0)
(0.000977437227076 0.000113798290848 0)
(0.000954001553018 9.68633836804e-05 0)
(0.000933531458929 8.18193187227e-05 0)
(0.000915942906367 6.83867189923e-05 0)
(0.000901126282089 5.63195224851e-05 0)
(0.000888962199274 4.54026296256e-05 0)
(0.000879331836887 3.54485406688e-05 0)
(0.000872123547335 2.62937761225e-05 0)
(0.000867236931912 1.77954649522e-05 0)
(0.000864585210357 9.82826921654e-06 0)
(0.000864096449939 2.28170236525e-06 0)
(0.000865714037572 -4.94215714027e-06 0)
(0.000869396646623 -1.19305532198e-05 0)
(0.000875117874551 -1.87616280843e-05 0)
(0.000882865661392 -2.55056768844e-05 0)
(0.000892641541543 -3.22260938942e-05 0)
(0.000904459758526 -3.89800362146e-05 0)
(0.00091834624787 -4.58188100044e-05 0)
(0.000934337473339 -5.27879760411e-05 0)
(0.00095247908583 -5.99271633733e-05 0)
(0.000972824360715 -6.72695729949e-05 0)
(0.000995432357538 -7.4841148525e-05 0)
(0.00102036573567 -8.2659389104e-05 0)
(0.00104768815096 -9.07317827249e-05 0)
(0.0010774611527 -9.90538483783e-05 0)
(0.00110974049858 -0.00010760679569 0)
(0.00114457181046 -0.000116354844674 0)
(0.00118198550868 -0.000125242299524 0)
(0.0012219909919 -0.000134190541657 0)
(0.00126457007787 -0.00014309519881 0)
(0.00130966979439 -0.000151823853543 0)
(0.001357194712 -0.000160214762392 0)
(0.00140699914292 -0.000168077139994 0)
(0.00145887968565 -0.000175193581673 0)
(0.00151256875318 -0.000181325104182 0)
(0.00156772984871 -0.000186219032829 0)
(0.00162395539553 -0.000189619535361 0)
(0.00168076783101 -0.000191280038246 0)
(0.00173762439519 -0.000190976178028 0)
(0.00179392558244 -0.000188517544595 0)
(0.00184902665133 -0.000183756519876 0)
(0.0019022510785 -0.000176593221921 0)
(0.0019529046533 -0.000166976907116 0)
(0.00200028925499 -0.000154905649964 0)
(0.00204371612888 -0.000140426761947 0)
(0.00208251916381 -0.000123639734498 0)
(0.00211606888603 -0.000104702525168 0)
(0.00214378817206 -8.38421004937e-05 0)
(0.00216517172959 -6.13692336633e-05 0)
(0.00217981155324 -3.76911754993e-05 0)
(0.0021874266741 -1.33075073657e-05 0)
(0.00218788903789 1.12224176947e-05 0)
(0.0021812350615 3.53352347993e-05 0)
(0.00216765747942 5.85226932207e-05 0)
(0.00214748030456 8.03733607739e-05 0)
(0.00212112589265 0.000100585112349 0)
(0.00208908440431 0.000118951182337 0)
(0.00205189179452 0.00013533437251 0)
(0.00201011618164 0.000149644002163 0)
(0.00196434914556 0.000161821277583 0)
(0.00191519905725 0.000171832166908 0)
(0.00186328486607 0.00017966622684 0)
(0.00180922907832 0.000185340364482 0)
(0.00175364880819 0.000188905331883 0)
(0.00169714462877 0.000190451516201 0)
(0.00164028807933 0.000190111034228 0)
(0.00158360935471 0.000188054836686 0)
(0.00152758671048 0.000184485244736 0)
(0.00147263869183 0.000179625407504 0)
(0.00141911972005 0.000173707534564 0)
(0.00136731903159 0.000166961608005 0)
(0.00131746255759 0.000159605826738 0)
(0.00126971709273 0.000151839473834 0)
(0.0012241960234 0.000143838378206 0)
(0.00118096592753 0.000135752757253 0)
(0.00114005347308 0.000127707004305 0)
(0.00110145218355 0.000119800904269 0)
(0.00106512877683 0.00011211178047 0)
(0.00103102890127 0.000104697151498 0)
(0.000999082184096 9.75975740175e-05 0)
(0.000969206572644 9.08394431835e-05 0)
(0.000941311992602 8.44376046631e-05 0)