/*--------------------------------*- C++ -*----------------------------------*\
  =========                 |
  \\      /  F ield         | OpenFOAM: The Open Source CFD Toolbox
   \\    /   O peration     | Website:  https://openfoam.org
    \\  /    A nd           | Version:  7
     \\/     M anipulation  |
\*---------------------------------------------------------------------------*/
FoamFile
{
    version     2.0;
    format      ascii;
    class       volScalarField;
    location    "240";
    object      p;
}
// * * * * * * * * * * * * * * * * * * * * * * * * * * * * * * * * * * * * * //

dimensions      [0 2 -2 0 0 0 0];

internalField   nonuniform List<scalar> 
8192
(
0.000712955771821
0.000541429226232
0.000455872081655
0.00041183922216
0.000386902408623
0.000371751827517
0.000361964261332
0.000355292505882
0.000350528627009
0.000346988490303
0.000344265136474
0.000342105288019
0.000340344780185
0.000338873344519
0.000337614595534
0.000336514200077
0.000335532619096
0.000334640498388
0.000333815647037
0.000333040998069
0.000332303194272
0.000331591582242
0.00033089747867
0.000330213621458
0.000329533747611
0.000328852258081
0.000328163942576
0.000327463745519
0.000326746557276
0.000326007019283
0.000325239334256
0.00032443707468
0.000323592983881
0.000322698765667
0.00032174485979
0.000320720202609
0.00031961197466
0.000318405340352
0.000317083189235
0.000315625893996
0.000314011106895
0.000312213623983
0.000310205353894
0.000307955434222
0.000305430541215
0.000302595435049
0.000299413770434
0.000295849178226
0.000291866587866
0.000287433715552
0.00028252259786
0.000277111018893
0.000271183680166
0.000264733011192
0.000257759613719
0.000250272441156
0.00024228888116
0.0002338348944
0.000224945287141
0.000215664116053
0.000206045136551
0.000196152038754
0.000186058002648
0.000175844091971
0.000165596357008
0.000155402022041
0.000145345435766
0.000135504489405
0.000125948105138
0.000116735081571
0.000107914112083
9.95244664486e-05
9.15968373974e-05
8.41540615112e-05
7.72115952423e-05
7.07777234439e-05
6.48535717432e-05
5.94330910714e-05
5.45032201092e-05
5.00443780954e-05
4.60313309871e-05
4.2434366843e-05
3.92206507002e-05
3.63556116442e-05
3.38042338594e-05
3.15321609677e-05
2.95065653088e-05
2.76967706627e-05
2.60746445616e-05
2.46147929836e-05
2.32945978868e-05
2.20941384676e-05
2.09960332502e-05
1.99852339382e-05
1.90487952162e-05
1.8175638292e-05
1.73563204082e-05
1.65828181833e-05
1.58483291648e-05
1.51470936519e-05
1.44742370215e-05
1.38256318556e-05
1.31977783419e-05
1.25877012617e-05
1.19928615539e-05
1.14110806552e-05
1.08404757094e-05
1.02794040927e-05
9.72641568012e-06
9.18021167805e-06
8.63960887533e-06
8.10350861229e-06
7.57086988853e-06
7.04068662978e-06
6.51196954138e-06
5.9837340494e-06
5.45499709116e-06
4.92478805558e-06
4.39218308801e-06
3.85637935056e-06
3.31683894559e-06
2.77355764428e-06
2.22756374978e-06
1.68185773289e-06
1.1432404519e-06
6.26066883629e-07
1.61475864098e-07
-9.49824174577e-08
0.00056401861374
0.000500528373329
0.000450890006829
0.000418304979474
0.000396454472986
0.000381341542756
0.000370583693622
0.000362714045189
0.000356806464399
0.000352262347067
0.000348685780026
0.000345808912246
0.000343446516223
0.000341467806829
0.000339778623356
0.000338309937258
0.000337010288581
0.000335840706961
0.000334771232922
0.000333778488897
0.000332843950888
0.000331952695581
0.000331092474811
0.000330253018339
0.000329425497481
0.000328602101593
0.000327775695131
0.000326939532481
0.000326087011197
0.000325211450335
0.000324305883869
0.000323362861433
0.000322374250432
0.000321331035325
0.000320223111538
0.000319039073451
0.000317765998211
0.000316389230101
0.000314892173834
0.000313256109695
0.000311460048661
0.000309480651479
0.000307292241239
0.000304866943519
0.000302174989773
0.000299185216536
0.00029586578275
0.000292185108452
0.000288113009694
0.000283621969091
0.000278688444919
0.000273294094955
0.000267426789287
0.000261081322845
0.000254259815294
0.000246971878355
0.000239234688482
0.000231073086408
0.000222519754202
0.000213615462064
0.000204409334978
0.000194958966368
0.000185329996241
0.000175594723828
0.000165829635656
0.000156112189324
0.000146517422638
0.000137114937039
0.000127966752656
0.000119126296108
0.000110638361328
0.000102539594555
9.48590961285e-05
8.7618935727e-05
8.08345058559e-05
7.45146883626e-05
6.86618783759e-05
6.32719987656e-05
5.83346740788e-05
5.38336859971e-05
4.97477387998e-05
4.60514763419e-05
4.27166419036e-05
3.97132612795e-05
3.70107462532e-05
3.45788459641e-05
3.23884069978e-05
3.0411932078e-05
2.86239489948e-05
2.70012148154e-05
2.55227867904e-05
2.41699921941e-05
2.29263267672e-05
2.17773069488e-05
2.07102960105e-05
1.97143193016e-05
1.87798794576e-05
1.78987789115e-05
1.70639542051e-05
1.62693245971e-05
1.55096558935e-05
1.47804395091e-05
1.40777860118e-05
1.33983321276e-05
1.27391598677e-05
1.20977264984e-05
1.14718039728e-05
1.08594266577e-05
1.02588461848e-05
9.66849254755e-06
9.08694062678e-06
8.51288169286e-06
7.94509960329e-06
7.38245193261e-06
6.82385670476e-06
6.26828631149e-06
5.71477128652e-06
5.1624185445e-06
4.6104514534e-06
4.05828374894e-06
3.50564652207e-06
2.95279958788e-06
2.40087849535e-06
1.85246348054e-06
1.31251847944e-06
7.90006858248e-07
3.000421536e-07
-3.40282010604e-08
0.000481010729201
0.000458376313719
0.000432435390356
0.000411258601775
0.000395200479888
0.000382947469846
0.000373477506308
0.000366061533624
0.000360176848067
0.000355444016678
0.000351584774768
0.000348393248151
0.000345715821296
0.000343436866062
0.000341468550597
0.000339743522471
0.000338209625921
0.000336826062581
0.000335560579483
0.000334387391148
0.000333285628749
0.000332238169975
0.000331230745301
0.000330251246142
0.00032928918145
0.000328335241018
0.000327380939027
0.000326418317385
0.00032543968986
0.000324437415045
0.000323403688709
0.000322330348209
0.000321208683248
0.000320029249061
0.000318781679549
0.000317454499742
0.00031603493887
0.000314508747912
0.00031286002841
0.000311071083134
0.00030912230345
0.000306992113117
0.000304656993092
0.000302091616006
0.000299269121085
0.000296161558474
0.00029274052441
0.00028897799325
0.000284847328374
0.000280324422084
0.000275388879503
0.000270025131775
0.000264223354442
0.000257980094969
0.000251298588326
0.000244188840955
0.000236667631519
0.000228758552553
0.000220492124428
0.000211905965744
0.0002030450268
0.000193961798934
0.000184716107842
0.00017537395216
0.000166005219414
0.000156680683046
0.000147468866814
0.000138433251141
0.000129630311474
0.000121108700549
0.000112909378618
0.000105066151438
9.76062045716e-05
9.05505168132e-05
8.39141369989e-05
7.77062920659e-05
7.19303491759e-05
6.65837647374e-05
6.16581981905e-05
5.71399108991e-05
5.30104666973e-05
4.92476649162e-05
4.58265958872e-05
4.2720706776e-05
3.99027868708e-05
3.73458115558e-05
3.5023614618e-05
3.2911383523e-05
3.09859902686e-05
2.92261808416e-05
2.76126507963e-05
2.61280344563e-05
2.47568326319e-05
2.34852998003e-05
2.23013073937e-05
2.11941958387e-05
2.01546244192e-05
1.91744252526e-05
1.82464653245e-05
1.73645189664e-05
1.65231518084e-05
1.57176165343e-05
1.49437600529e-05
1.41979415043e-05
1.34769601603e-05
1.27779923598e-05
1.20985364409e-05
1.14363648479e-05
1.07894825079e-05
1.01560908559e-05
9.53455686955e-06
8.9233868169e-06
8.32120449014e-06
7.7267341362e-06
7.13878853084e-06
6.5562632931e-06
5.97813910583e-06
5.40349461551e-06
4.83153403641e-06
4.26163555863e-06
3.69342936869e-06
3.12691839152e-06
2.56266120873e-06
2.00204621578e-06
1.4476965436e-06
9.03963235965e-07
3.76582876364e-07
-1.70908876323e-08
0.000436378195779
0.00042803737403
0.000413899903312
0.000400163748595
0.000388788531875
0.00037956100015
0.000372027060582
0.000365817778002
0.000360654710111
0.000356325194666
0.000352663468855
0.000349538492174
0.000346845827112
0.000344501835246
0.000342439293597
0.000340603980208
0.000338951978611
0.000337447540136
0.000336061386589
0.000334769361602
0.000333551357232
0.000332390456936
0.000331272247818
0.000330184264769
0.000329115538108
0.000328056216514
0.000326997252235
0.000325930134646
0.000324846656361
0.000323738704115
0.000322598067187
0.00032141625747
0.000320184336568
0.000318892746545
0.000317531142184
0.000316088223979
0.000314551572686
0.000312907488275
0.000311140838635
0.000309234926544
0.000307171387273
0.000304930133678
0.000302489370527
0.000299825704419
0.000296914378943
0.000293729664918
0.000290245430554
0.000286435903642
0.000282276615767
0.00027774548667
0.000272823968085
0.000267498128541
0.000261759539391
0.000255605842638
0.000249040964469
0.000242075070948
0.000234724461332
0.000227011555464
0.000218964979725
0.000210619703722
0.00020201731496
0.0001932064766
0.000184243098798
0.000175189398262
0.000166111573326
0.000157076695634
0.000148149528697
0.000139389681577
0.000130849654852
0.000122574250769
0.000114601062779
0.00010696124561
9.96800806793e-05
9.27773480992e-05
8.62675724263e-05
8.01600780941e-05
7.44588455429e-05
6.91623311697e-05
6.42634788196e-05
5.97500628368e-05
5.56053648536e-05
5.18090900352e-05
4.83383947485e-05
4.51689076738e-05
4.2275656336e-05
3.96338455941e-05
3.72194656638e-05
3.50097310659e-05
3.29833674511e-05
3.11207713008e-05
2.94040698245e-05
2.78171069279e-05
2.63453776867e-05
2.49759295671e-05
2.36972444892e-05
2.24991121636e-05
2.13725020718e-05
2.03094390768e-05
1.93028857995e-05
1.83466335879e-05
1.74352029101e-05
1.65637533914e-05
1.57280032292e-05
1.49241575065e-05
1.41488447106e-05
1.33990607593e-05
1.2672119762e-05
1.19656108379e-05
1.12773603081e-05
1.06053987257e-05
9.94793224293e-06
9.30331799499e-06
8.67004326147e-06
8.0467083928e-06
7.43201363892e-06
6.82475033556e-06
6.22379718697e-06
5.62812289449e-06
5.03679697008e-06
4.44901157924e-06
3.86411870221e-06
3.28168932112e-06
2.70160460262e-06
2.12419067308e-06
1.55038661344e-06
9.81769331728e-07
4.19464726723e-07
-1.40637320531e-08
0.000408676062984
0.000406769988781
0.000399031556488
0.000389893859188
0.000381661058992
0.000374669799401
0.000368762681137
0.000363734207275
0.000359416007749
0.000355678449669
0.000352420333756
0.000349560468924
0.000347032254157
0.000344780285162
0.000342758109405
0.000340926610677
0.000339252755428
0.000337708569905
0.000336270283437
0.000334917602986
0.000333633096796
0.000332401670465
0.000331210121319
0.000330046758596
0.000328901080137
0.00032776348854
0.00032662504641
0.000325477263846
0.000324311905217
0.000323120812761
0.000321895742219
0.000320628206482
0.000319309323951
0.000317929669073
0.000316479123272
0.000314946725503
0.000313320522816
0.000311587422913
0.000309733052788
0.000307741630286
0.000305595859036
0.000303276861664
0.000300764171447
0.000298035808151
0.000295068468714
0.000291837865943
0.000288319246074
0.000284488105721
0.000280321107632
0.00027579716112
0.000270898587941
0.000265612244134
0.000259930429629
0.000253851424809
0.000247379589815
0.000240525149413
0.000233303947294
0.000225737394423
0.000217852560965
0.00020968227026
0.000201265404362
0.000192647735595
0.000183882690718
0.000175030659137
0.000166156390715
0.000157325518382
0.000148601146864
0.000140040743888
0.000131694015036
0.000123602596419
0.000115801128019
0.000108318395116
0.000101177929492
9.43983406671e-05
8.7993570756e-05
8.19729147273e-05
7.63407336432e-05
7.10960902602e-05
6.62326303901e-05
6.1738883959e-05
5.75989622112e-05
5.37935140973e-05
5.03007830109e-05
4.70976326194e-05
4.4160453174e-05
4.14659009294e-05
3.89914568263e-05
3.67158141737e-05
3.46191188681e-05
3.26830913245e-05
3.08910592936e-05
2.92279274583e-05
2.76801050623e-05
2.62354080145e-05
2.48829476006e-05
2.36130143791e-05
2.24169630528e-05
2.12871020428e-05
2.02165899665e-05
1.91993401885e-05
1.82299338631e-05
1.73035414394e-05
1.64158522703e-05
1.55630118204e-05
1.47415658447e-05
1.39484109104e-05
1.31807506044e-05
1.24360568368e-05
1.1712035661e-05
1.10065971271e-05
1.0317828715e-05
9.64397200307e-06
8.9834022726e-06
8.33461087825e-06
7.6961902868e-06
7.06682186273e-06
6.44526663795e-06
5.8303596219e-06
5.22100862485e-06
4.6161993083e-06
4.01500921163e-06
3.41663477759e-06
2.82043526598e-06
2.22598876626e-06
1.63310925441e-06
1.04159187671e-06
4.49971884298e-07
-1.31962414272e-08
0.000390252278763
0.000391225837805
0.000387252611409
0.000381175412002
0.00037512781786
0.000369732352743
0.000365039904411
0.000360955800291
0.000357373618323
0.000354205011178
0.000351380713812
0.000348845976571
0.000346556357692
0.000344474817242
0.000342569861677
0.000340814357149
0.000339184731019
0.000337660391631
0.000336223272628
0.000334857452988
0.000333548828027
0.000332284818749
0.000331054112596
0.000329846431383
0.000328652323326
0.000327462970251
0.000326270014155
0.000325065402237
0.000323841239142
0.00032258964777
0.000321302635848
0.000319971965831
0.00031858902597
0.000317144700717
0.000315629239066
0.000314032119996
0.000312341915037
0.000310546149167
0.000308631162985
0.000306581981552
0.000304382198741
0.000302013890485
0.000299457576112
0.000296692253778
0.000293695542863
0.000290443971568
0.000286913448687
0.00028307995104
0.000278920437888
0.000274413967822
0.00026954294048
0.000264294318723
0.000258660622184
0.000252640466194
0.000246238528399
0.000239465097755
0.000232335639556
0.000224870734189
0.000217096232845
0.000209043255515
0.000200748421
0.000192255197563
0.000183615636482
0.000174890011851
0.000166143595111
0.000157442517742
0.000148850038203
0.000140422961433
0.000132209076284
0.00012424723332
0.000116569369706
0.000109202172125
0.00010216761805
9.54832175708e-05
8.91623391687e-05
8.32142272144e-05
7.76435174549e-05
7.24496115552e-05
6.76263973031e-05
6.31625317178e-05
5.90422124568e-05
5.52462332217e-05
5.17531207092e-05
4.85402045911e-05
4.55845309727e-05
4.28635793537e-05
4.03557797356e-05
3.80408502132e-05
3.58999872067e-05
3.39159433943e-05
3.20730256041e-05
3.03570394588e-05
2.87552014316e-05
2.72560333639e-05
2.58492498781e-05
2.45256455789e-05
2.32769863559e-05
2.20959072873e-05
2.09758184152e-05
1.99108188558e-05
1.88956191914e-05
1.79254717876e-05
1.69961084966e-05
1.61036851354e-05
1.52447320853e-05
1.44161103854e-05
1.36149727031e-05
1.28387286264e-05
1.20850137503e-05
1.13516620976e-05
1.06366814458e-05
9.93823120189e-06
9.25460249707e-06
8.58420025361e-06
7.9255270252e-06
7.27716852934e-06
6.63778091208e-06
6.00608002179e-06
5.38083326724e-06
4.76085506565e-06
4.14500718155e-06
3.53220467911e-06
2.92142386836e-06
2.31169179285e-06
1.70198269205e-06
1.0908058353e-06
4.75047827001e-07
-1.17822693769e-08
0.000377311297855
0.000379527911096
0.000377807471779
0.000373849466441
0.000369407957355
0.000365201853538
0.000361421783275
0.000358063010278
0.000355068798027
0.000352379175273
0.00034994344409
0.000347721007825
0.000345679330789
0.000343791775198
0.000342035958495
0.000340392632828
0.000338844945347
0.000337377944515
0.000335978235921
0.000334633726329
0.000333333419552
0.000332067243515
0.000330825897152
0.000329600712198
0.000328383523166
0.000327166542921
0.000325942245617
0.00032470325917
0.000323442257339
0.000322151854097
0.000320824498705
0.000319452369986
0.000318027268318
0.00031654050396
0.00031498278044
0.000313344072065
0.000311613495115
0.000309779173128
0.000307828098112
0.000305745991643
0.000303517173125
0.000301124447128
0.000298549028232
0.000295770529908
0.00029276705335
0.000289515420788
0.000285991602643
0.000282171383901
0.000278031296621
0.000273549807366
0.000268708686494
0.000263494399295
0.000257899257259
0.000251922005716
0.000245567630931
0.000238846566708
0.000231773980725
0.000224369762687
0.000216658873532
0.000208671145387
0.000200441151667
0.00019201025336
0.000183430003248
0.000174762288941
0.000166074863919
0.000157436175415
0.000148911388845
0.000140558091277
0.00013242279402
0.000124541577881
0.000116943733579
0.000109654119744
0.000102693370695
9.60779479724e-05
8.98206703521e-05
8.39307921522e-05
7.84132257509e-05
7.32675346479e-05
6.8487453638e-05
6.40611938806e-05
5.9972359324e-05
5.62011679628e-05
5.2725719885e-05
4.95231456428e-05
4.65705471218e-05
4.38457013399e-05
4.13275375744e-05
3.89964216175e-05
3.68342902777e-05
3.48246785578e-05
3.29526757341e-05
3.12048384091e-05
2.95690807655e-05
2.80345557043e-05
2.65915356139e-05
2.5231297976e-05
2.39460186497e-05
2.27286741144e-05
2.15729530078e-05
2.04731767149e-05
1.94242284613e-05
1.84214902028e-05
1.74607865594e-05
1.6538335034e-05
1.56507018008e-05
1.47947623942e-05
1.39676666877e-05
1.31668076083e-05
1.23897930888e-05
1.16344208064e-05
1.08986553041e-05
1.01806071332e-05
9.4785136941e-06
8.79072149838e-06
8.11566962632e-06
7.45187422126e-06
6.79791395461e-06
6.15241650723e-06
5.51404621123e-06
4.88149294181e-06
4.25346170923e-06
3.62865998074e-06
3.00577241589e-06
2.38339281528e-06
1.75983550247e-06
1.13266002511e-06
4.97679690622e-07
-8.48342016319e-09
0.000367814230241
0.000370507547149
0.000370143315015
0.000367671172812
0.000364445970717
0.000361165741704
0.000358097857966
0.000355305925606
0.000352776519949
0.000350474702042
0.000348364521231
0.000346414973173
0.000344600662607
0.000342900894992
0.000341298545328
0.000339779110847
0.000338330012822
0.000336940107682
0.00033559934891
0.000334298549525
0.000333029208702
0.00033178337808
0.000330553552149
0.000329332575911
0.000328113555753
0.00032688977588
0.000325654618425
0.000324401488012
0.000323123733048
0.000321814565746
0.000320466979714
0.000319073663883
0.000317626911552
0.000316118523204
0.000314539701783
0.000312880939151
0.000311131892724
0.000309281251801
0.000307316594198
0.000305224235591
0.000302989077083
0.000300594461267
0.000298022054186
0.000295251780265
0.000292261849436
0.000289028928496
0.00028552851864
0.000281735602123
0.000277625605305
0.000273175685847
0.000268366281568
0.00026318274946
0.000257616772024
0.000251667066959
0.000245339003995
0.000238643296681
0.000231594844262
0.000224212880443
0.000216521814027
0.000208550678558
0.000200331989409
0.000191904667078
0.00018332045997
0.000174644921237
0.000165950467928
0.000157309652837
0.000148791434473
0.000140455853319
0.000132348571706
0.000124502410946
0.000116943865677
0.000109696327423
0.000102779323663
9.62082255233e-05
8.99952854731e-05
8.41498952182e-05
7.86773398817e-05
7.35772178084e-05
6.88427174155e-05
6.44610144883e-05
6.04144311654e-05
5.66819020241e-05
5.32404254254e-05
5.00663206507e-05
4.71362102195e-05
4.44277130847e-05
4.19198771168e-05
3.95934019022e-05
3.74307085006e-05
3.54159074613e-05
3.35347058244e-05
3.17742825167e-05
3.01231517197e-05
2.85710262997e-05
2.710868814e-05
2.57278687669e-05
2.44211415477e-05
2.31818254891e-05
2.20039000147e-05
2.08819297695e-05
1.98109984039e-05
1.87866502798e-05
1.78048391138e-05
1.68618826509e-05
1.59544225648e-05
1.50793888663e-05
1.4233968191e-05
1.34155754084e-05
1.26218280612e-05
1.18505231979e-05
1.10996162082e-05
1.03672013119e-05
9.65149338437e-06
8.9508108384e-06
8.26355931025e-06
7.58821593077e-06
6.92331397409e-06
6.26742765218e-06
5.61915664624e-06
4.97710943273e-06
4.3398829885e-06
3.70603280839e-06
3.07401855872e-06
2.44209193865e-06
1.80805792071e-06
1.16879482464e-06
5.19429989365e-07
-2.53639516653e-09
0.000360599007309
0.000363411372761
0.000363862251663
0.000362435498905
0.000360141911951
0.000357601385737
0.00035510942746
0.000352775181095
0.000350620615539
0.000348633529893
0.000346791701476
0.000345072503996
0.000343456031262
0.00034192560379
0.000340467372034
0.000339069714407
0.000337722681683
0.000336417555041
0.000335146516191
0.000333902407291
0.000332678556305
0.000331468647455
0.000330266621267
0.000329066597773
0.000327862803627
0.000326649506422
0.000325420956015
0.000324171326933
0.000322894657975
0.000321584789219
0.000320235295173
0.000318839412726
0.000317389962557
0.00031587926247
0.000314299031045
0.000312640279833
0.000310893192387
0.000309046988591
0.000307089773485
0.000305008371191
0.00030278814737
0.000300412828352
0.000297864332802
0.00029512264308
0.000292165758801
0.000288969792957
0.000285509287593
0.000281757833782
0.000277689069627
0.000273278090544
0.000268503229501
0.000263348035668
0.000257803068517
0.000251866853417
0.000245545289048
0.000238849550201
0.000231794166596
0.000224397518206
0.000216683830359
0.00020868210985
0.000200422566303
0.000191940477738
0.000183288299115
0.000174538117104
0.000165769676663
0.000157061352325
0.000148488123041
0.000140114807109
0.000131986420524
0.000124131212722
0.000116572529761
0.000109332950444
0.000102431172907
9.58812126376e-05
8.96946215877e-05
8.38811236129e-05
7.84465635666e-05
7.3390450801e-05
6.8704960981e-05
6.43755515071e-05
6.03824994932e-05
5.67027054109e-05
5.33113802896e-05
5.0183436963e-05
4.72945208853e-05
4.46216875327e-05
4.21437784466e-05
3.9841568646e-05
3.76977586137e-05
3.56968723304e-05
3.38251068625e-05
3.20701638602e-05
3.0421081396e-05
2.88680761166e-05
2.74024002812e-05
2.60162149918e-05
2.47024791873e-05
2.34548530832e-05
2.2267614445e-05
2.1135586016e-05
2.005407255e-05
1.9018806039e-05
1.80258979252e-05
1.70717972348e-05
1.61532537449e-05
1.52672854045e-05
1.4411149363e-05
1.35823160312e-05
1.27784456951e-05
1.19973672448e-05
1.12370586492e-05
1.04956288276e-05
9.7713006145e-06
9.06239452081e-06
8.36731300911e-06
7.68452497446e-06
7.01255005916e-06
6.34994224221e-06
5.69527173215e-06
5.04710325086e-06
4.40396678634e-06
3.76431266078e-06
3.12643430341e-06
2.48832657937e-06
1.84742420154e-06
1.20014653612e-06
5.4121130763e-07
6.55001368894e-09
0.00035497085223
0.00035773831708
0.000358674035973
0.000357982575155
0.000356404184656
0.000354461474211
0.00035244603591
0.000350492340638
0.000348648585646
0.000346922036936
0.000345303266173
0.00034377769201
0.000342330499528
0.000340948401783
0.000339620015121
0.000338335693999
0.000337087204381
0.000335867391444
0.000334669895583
0.000333488927094
0.000332319093298
0.000331155267214
0.000329992486778
0.000328825879252
0.000327650593591
0.000326461738166
0.000325254332555
0.000324023257917
0.000322763206337
0.000321468627611
0.000320133671875
0.000318752126457
0.000317317345289
0.000315822169013
0.000314258833725
0.000312618865972
0.000310892961418
0.000309070844441
0.000307141106203
0.000305091019691
0.000302906332528
0.000300571042932
0.00029806717223
0.000295374560292
0.000292470729038
0.000289330883235
0.000285928142918
0.000282234119069
0.000278219940161
0.000273857799693
0.000269123015478
0.000263996450838
0.000258466875866
0.000252532380515
0.000246199602977
0.000239480419814
0.00023238863411
0.000224941073794
0.000217162165341
0.000209082364604
0.000200729126731
0.000192131275322
0.000183342224177
0.000174445217514
0.000165530825822
0.000156684569744
0.000147990294763
0.000139521407704
0.000131322165343
0.000123413426634
0.000115814889892
0.000108549681873
0.000101635969178
9.5085651075e-05
8.89092057003e-05
8.31169764055e-05
7.77156520293e-05
7.27044664437e-05
6.80739460874e-05
6.38069662775e-05
5.98808551777e-05
5.62696385784e-05
5.29460110655e-05
4.98828787357e-05
4.70544360817e-05
4.44368126167e-05
4.20083716537e-05
3.97497613572e-05
3.76438110268e-05
3.567534543e-05
3.38309671606e-05
3.20988375377e-05
3.046847238e-05
2.89305597807e-05
2.7476801619e-05
2.60997776873e-05
2.47928300673e-05
2.35499649827e-05
2.2365769455e-05
2.12353403362e-05
2.01542236536e-05
1.91183625078e-05
1.8124052086e-05
1.71679005806e-05
1.62467950345e-05
1.53578712822e-05
1.44984873123e-05
1.36661994685e-05
1.2858741005e-05
1.20740025719e-05
1.13100142603e-05
1.05649288719e-05
9.83700610209e-06
9.12459732343e-06
8.42613063907e-06
7.74009580185e-06
7.06502844519e-06
6.39949276119e-06
5.74206114813e-06
5.09128815659e-06
4.44567377671e-06
3.80360685338e-06
3.16327191069e-06
2.52249089799e-06
1.87845752678e-06
1.22731863931e-06
5.63594526692e-07
1.90884389344e-08
0.000350495518398
0.00035314625319
0.000354362902578
0.000354187355998
0.000353157117768
0.000351699016609
0.000350082484938
0.00034845167999
0.000346872114365
0.00034536647509
0.000343936640643
0.000342575655667
0.000341273685587
0.000340020711421
0.000338807579018
0.000337626271625
0.000336469848409
0.000335332263391
0.000334208162267
0.000333092696778
0.000331981368944
0.000330869905461
0.00032975415897
0.000328630030408
0.000327493402899
0.000326340079218
0.000325165736643
0.00032396588039
0.000322735797325
0.00032147050767
0.000320164712786
0.000318812737113
0.00031740846225
0.00031594525092
0.000314415858244
0.000312812327239
0.000311125864962
0.000309346695201
0.000307463883348
0.000305465129399
0.000303336526684
0.000301062287933
0.000298624448396
0.000296002570029
0.000293173493241
0.000290111213926
0.000286786999637
0.000283169889022
0.000279227725145
0.000274928839368
0.000270244424591
0.000265151502738
0.000259636084949
0.000253695395335
0.000247337084597
0.000240574084788
0.00023341866249
0.00022588433131
0.000217995962554
0.000209788491928
0.00020128616174
0.000192505328057
0.000183500125198
0.000174373280768
0.000165231030335
0.000156166056405
0.000147274955513
0.000138646775168
0.000130324328908
0.00012231529535
0.000114635311575
0.000107310946512
0.000100359984333
9.37903837092e-05
8.76107494332e-05
8.18324998765e-05
7.64635626093e-05
7.15025413341e-05
6.69373744256e-05
6.27472122386e-05
5.89053299798e-05
5.53819152231e-05
5.21463575036e-05
4.91689465518e-05
4.64219796534e-05
4.38803492351e-05
4.15217320431e-05
3.9326514138e-05
3.72775679293e-05
3.53599658874e-05
3.35606844181e-05
3.1868327043e-05
3.02728797805e-05
2.8765501934e-05
2.73383504841e-05
2.59844340777e-05
2.46974920481e-05
2.34718940924e-05
2.2302556796e-05
2.1184873799e-05
2.01146570095e-05
1.90880867591e-05
1.81016692341e-05
1.71521998347e-05
1.62367313925e-05
1.53525463726e-05
1.44971323567e-05
1.36681602181e-05
1.28634645046e-05
1.20810256084e-05
1.1318953361e-05
1.05754717187e-05
9.84890422225e-06
9.13765989445e-06
8.44021919577e-06
7.7551195375e-06
7.08093963797e-06
6.4162815965e-06
5.7597488234e-06
5.1099166377e-06
4.46529002015e-06
3.82423906818e-06
3.18489650082e-06
2.54499321308e-06
1.90160054443e-06
1.25075142419e-06
5.86942636481e-07
3.52504820559e-08
0.000346889859526
0.000349395591524
0.000350765676903
0.000350950227664
0.000350338690527
0.00034927291928
0.000347991723391
0.000346638069404
0.000345287141253
0.000343972845827
0.000342706435045
0.000341487848651
0.000340312029841
0.000339172194072
0.000338061387373
0.000336973137215
0.000335901648065
0.000334841784966
0.00033378897084
0.000332739059343
0.000331688211302
0.000330632785505
0.000329569249331
0.00032849410278
0.000327403812869
0.000326294753703
0.000325163160857
0.000324005086271
0.00032281635387
0.000321592513694
0.00032032879244
0.000319020038271
0.000317660657589
0.000316244541142
0.000314764976333
0.000313214541932
0.000311584980541
0.000309867043176
0.000308050299447
0.000306122906274
0.000304071328763
0.000301880009897
0.00029953099329
0.000297003518356
0.000294273633254
0.000291313910293
0.000288093398418
0.000284577995572
0.000280731445353
0.000276517133045
0.000271900780197
0.00026685403838
0.000261358718503
0.000255410388735
0.00024901804206
0.000242196285032
0.000234954311818
0.000227298339668
0.000219253190681
0.000210864565626
0.000202153706154
0.000193111836171
0.000183792473687
0.000174334055023
0.000164865414405
0.000155482880249
0.000146301410146
0.00013743981999
0.000128937560293
0.000120777190021
0.000112970703459
0.000105554169581
9.85443707308e-05
9.19412752915e-05
8.57501369412e-05
7.99842617281e-05
7.46533368109e-05
6.97546393612e-05
6.52721036305e-05
6.11796360878e-05
5.74451192142e-05
5.40338122332e-05
5.0910964686e-05
4.80436544119e-05
4.54018914558e-05
4.2959100848e-05
4.06921552229e-05
3.85811339869e-05
3.66089516052e-05
3.47609509905e-05
3.30245167584e-05
3.13887337928e-05
2.98440986117e-05
2.83822814709e-05
2.69959329803e-05
2.56785278175e-05
2.44242384822e-05
2.32278329573e-05
2.20845912626e-05
2.09902368806e-05
1.99408799278e-05
1.89329696193e-05
1.79632541442e-05
1.7028746469e-05
1.6126694925e-05
1.52545576624e-05
1.44099802502e-05
1.35907758296e-05
1.27949073387e-05
1.20204713977e-05
1.12656834975e-05
1.05288641634e-05
9.80842576897e-06
9.10285964734e-06
8.41072307341e-06
7.73062554016e-06
7.06121348633e-06
6.40115216336e-06
5.74910252786e-06
5.10368969921e-06
4.46345731579e-06
3.82679869149e-06
3.19185080937e-06
2.5563315832e-06
1.91729749428e-06
1.27080429061e-06
6.11474633283e-07
5.50838969407e-08
0.000343961558416
0.000346314225689
0.000347756925769
0.000348190351007
0.000347897173849
0.000347147964638
0.000346148621076
0.000345034092273
0.000343883255974
0.000342737369348
0.000341614951612
0.000340521851305
0.000339457407922
0.000338417968608
0.000337398774693
0.000336394902037
0.000335401677366
0.000334414817801
0.00033343043296
0.000332444965519
0.000331455109948
0.000330457728655
0.000329449778239
0.000328428242681
0.000327390068491
0.000326332111282
0.000325251090349
0.000324143545112
0.000323005792342
0.000321833882132
0.000320623550512
0.000319370166465
0.000318068670849
0.000316713504263
0.000315298520243
0.000313816879268
0.000312260917789
0.000310621985061
0.000308890238806
0.000307054389211
0.000305101380048
0.000303015997165
0.000300780400876
0.000298373593616
0.000295770863114
0.00029294328908
0.000289857468325
0.00028647568572
0.000282756802431
0.000278658107339
0.000274138293944
0.000269161690326
0.000263703809008
0.000257757155727
0.000251332443968
0.000244447227094
0.000237105101974
0.000229296495872
0.000221043122235
0.000212414304902
0.000203431223451
0.000194033032967
0.000184268634264
0.000174345606889
0.000164425464643
0.000154596168774
0.000144999515573
0.000135813851577
0.000127070377881
0.00011870141587
0.000110718715767
0.000103180207374
9.60984297002e-05
8.94567974001e-05
8.3254841187e-05
7.75093743743e-05
7.22325086969e-05
6.74188885779e-05
6.30463513991e-05
5.90816117196e-05
5.5485611257e-05
5.22175183249e-05
4.92376239252e-05
4.65092777836e-05
4.39999316851e-05
4.16814495541e-05
3.95299196565e-05
3.75251977319e-05
3.56503522075e-05
3.38911162865e-05
3.22353991828e-05
3.06728747236e-05
2.91946468785e-05
2.77929832044e-05
2.64611045752e-05
2.51930198189e-05
2.39833954363e-05
2.2827452379e-05
2.1720883616e-05
2.06597876528e-05
1.9640614349e-05