/*--------------------------------*- C++ -*----------------------------------*\
  =========                 |
  \\      /  F ield         | OpenFOAM: The Open Source CFD Toolbox
   \\    /   O peration     | Website:  https://openfoam.org
    \\  /    A nd           | Version:  7
     \\/     M anipulation  |
\*---------------------------------------------------------------------------*/
FoamFile
{
    version     2.0;
    format      ascii;
    class       surfaceScalarField;
    location    "240";
    object      phi;
}
// * * * * * * * * * * * * * * * * * * * * * * * * * * * * * * * * * * * * * //

dimensions      [0 3 -1 0 0 0 0];

internalField   nonuniform List<scalar> 
16192
(
6.92873537907e-10
2.44626462093e-10
4.9346384811e-10
1.99409665103e-10
3.64714163105e-10
1.2874966116e-10
2.82162468772e-10
8.25516720975e-11
2.27607837453e-10
5.45546095267e-11
1.90099215273e-10
3.75086009365e-11
1.63286801389e-10
2.68123933906e-11
1.4345207755e-10
1.9834704233e-11
1.28356403664e-10
1.5095655242e-11
1.16604358402e-10
1.17520276494e-11
1.07293681597e-10
9.31066027325e-12
9.98199484632e-11
7.47371776008e-12
9.37648718704e-11
6.05506244218e-12
8.88305262037e-11
4.93433284035e-12
8.47993870994e-11
4.03112769162e-12
8.15092880538e-11
3.29008917291e-12
7.88372503676e-11
2.67202946251e-12
7.6688748168e-11
2.14849577184e-12
7.49903980604e-11
1.69834559941e-12
7.36848658317e-11
1.30552980183e-12
7.27272447518e-11
9.57620867463e-13
7.20824340737e-11
6.44812851849e-13
7.17232117498e-11
3.59227021487e-13
7.16287988923e-11
9.44202547811e-14
7.17837783441e-11
-1.54969217663e-13
7.21772711887e-11
-3.93479600048e-13
7.28023035858e-11
-6.25016011021e-13
7.36553173317e-11
-8.52994054195e-13
7.47357863499e-11
-1.08044590242e-12
7.60459101362e-11
-1.31009709919e-12
7.75903601615e-11
-1.54441966775e-12
7.93760587888e-11
-1.78566447734e-12
8.14119709981e-11
-2.03587419411e-12
8.3708889677e-11
-2.29687671085e-12
8.62791936775e-11
-2.57025804215e-12
8.91365565011e-11
-2.85731283314e-12
9.22955808774e-11
-3.15897036295e-12
9.57713328865e-11
-3.47569399301e-12
9.95787478591e-11
-3.80735302718e-12
1.03731881543e-10
-4.15306791104e-12
1.08242984217e-10
-4.51103323321e-12
1.13121385277e-10
-4.87832815711e-12
1.18372192309e-10
-5.25073092652e-12
1.23994833692e-10
-5.62256239577e-12
1.2998150715e-10
-5.98659194685e-12
1.36315636178e-10
-6.33404540473e-12
1.42970476669e-10
-6.65475517684e-12
1.49908047105e-10
-6.93748387455e-12
1.57078564594e-10
-7.17043009653e-12
1.64420539957e-10
-7.34188754781e-12
1.71861607292e-10
-7.4409794597e-12
1.79320037231e-10
-7.45834236299e-12
1.86706734562e-10
-7.38661041233e-12
1.93927405038e-10
-7.2205846308e-12
2.00884564755e-10
-6.95707546317e-12
2.0747919603e-10
-6.59454928373e-12
2.13612076611e-10
-6.13280172986e-12
2.19185001242e-10
-5.57284999805e-12
2.2410220125e-10
-4.91713091144e-12
2.28272314722e-10
-4.17005136421e-12
2.31611319448e-10
-3.33895119799e-12
2.34046712069e-10
-2.43534918633e-12
2.35522632502e-10
-1.47588850259e-12
2.36004839883e-10
-4.82188017605e-13
2.35484130418e-10
5.2071551155e-13
2.3397722216e-10
1.50690072812e-12
2.31524886264e-10
2.45231488973e-12
2.28187755903e-10
3.3370964542e-12
2.24040875491e-10
4.14683448523e-12
2.19168375731e-10
4.87244306797e-12
2.13659324767e-10
5.50898493907e-12
2.07605037146e-10
6.05421386495e-12
2.01097539018e-10
6.50741821737e-12
1.94228738238e-10
6.86871622266e-12
1.87089886608e-10
7.138763758e-12
1.79770950029e-10
7.31884652741e-12
1.7235957602e-10
7.41128270573e-12
1.64939546725e-10
7.41993743905e-12
1.57588860487e-10
7.35059437059e-12
1.503777609e-10
7.2110080864e-12
1.43367061728e-10
7.01060836409e-12
1.36607024743e-10
6.75994711406e-12
1.30136906242e-10
6.47002983454e-12
1.23985154683e-10
6.15166432203e-12
1.18170149377e-10
5.81491976325e-12
1.12701322881e-10
5.46874287414e-12
1.07580502519e-10
5.12073891275e-12
1.02803324724e-10
4.77709873183e-12
9.83606089515e-11
4.44263931305e-12
9.42396138773e-11
4.12092140194e-12
9.04251321328e-11
3.81441103245e-12
8.69004062959e-11
3.52465822978e-12
8.3647868084e-11
3.25247383376e-12
8.06497146827e-11
2.9980923557e-12
7.788834258e-11
2.7613144617e-12
7.5346661627e-11
2.54162677527e-12
7.30083115595e-11
2.3382993702e-12
7.08578014373e-11
2.15046291542e-12
6.88805895416e-11
1.97716814066e-12
6.70631186426e-11
1.81743055585e-12
6.53928184399e-11
1.67026318005e-12
6.38580848257e-11
1.53469982593e-12
6.24482430792e-11
1.40981105665e-12
6.1153500703e-11
1.29471466121e-12
5.99648937131e-11
1.18858208074e-12
5.88742294293e-11
1.09064203101e-12
5.78740273947e-11
1.00018224985e-12
5.69574596932e-11
9.16550222135e-13
5.61182907957e-11
8.39153528491e-13
5.53508168764e-11
7.67460496335e-13
5.46498034673e-11
7.0100174155e-13
5.40104200544e-11
6.39373343213e-13
5.34281689448e-11
5.82242459522e-13
5.28988050275e-11
5.29356542151e-13
5.24182410997e-11
4.80557665561e-13
5.19824315493e-11
4.35804271795e-13
5.15872234017e-11
3.95203708393e-13
5.12281587806e-11
3.59060907904e-13
5.09002039674e-11
3.27951699613e-13
5.05973665415e-11
3.02834815828e-13
5.03121382389e-11
2.85226091724e-13
5.00346619725e-11
2.77474386018e-13
4.97514573482e-11
2.8320300997e-13
4.944345163e-11
3.08004353557e-13
4.90830166495e-11
3.60433866009e-13
4.86302026642e-11
4.52813165206e-13
4.803155641e-11
5.98645740201e-13
7.68261007073e-13
9.53358407389e-10
2.28768030977e-10
8.59565407608e-10
2.93202617162e-10
7.45061245136e-10
2.43253777945e-10
6.420051018e-10
1.85607771695e-10
5.57022036267e-10
1.3953763236e-10
4.88901061465e-10
1.05629534344e-10
4.34609976867e-10
8.1103438161e-11
3.91186723672e-10
6.32579193396e-11
3.56210207591e-10
5.00721350989e-11
3.27818325293e-10
4.0143875714e-11
3.04608018532e-10
3.25209349227e-11
2.85525295267e-10
2.65564111938e-11
2.69774287433e-10
2.18060428917e-11
2.56748730452e-10
1.79598650866e-11
2.4598216491e-10
1.4797671355e-11
2.37112178082e-10
1.21600572184e-11
2.29854733959e-10
9.929458133e-12
2.23985638156e-10
8.01757971929e-12
2.19327034429e-10
6.35694132243e-12
2.15737464794e-10
4.89509556606e-12
2.13104473579e-10
3.59061261063e-12
2.11339046091e-10
2.41024555247e-12
2.10371384469e-10
1.32689880575e-12
2.10147668975e-10
3.18151140617e-13
2.10627552341e-10
-6.34831711817e-13
2.11782201956e-10
-1.5481026014e-12
2.1359275533e-10
-2.4355368051e-12
2.16049088383e-10
-3.3092883334e-12
2.19148814769e-10
-4.18012713855e-12
2.22896450967e-10
-5.05768159159e-12
2.27302691495e-10
-5.95060180424e-12
2.32383744781e-10
-6.86665257105e-12
2.38160682366e-10
-7.81273972442e-12
2.44658754602e-10
-8.7948699911e-12
2.51906624069e-10
-9.81804167835e-12
2.59935465702e-10
-1.08860618167e-11
2.68777879662e-10
-1.20012849828e-11
2.78466561928e-10
-1.31642704057e-11
2.89032678881e-10
-1.43733578723e-11
3.00503899164e-10
-1.56241701534e-11
3.12902050628e-10
-1.69090611337e-11
3.26240395987e-10
-1.82165449155e-11
3.40520559941e-10
-1.95307618085e-11
3.55729194782e-10
-2.08310603193e-11
3.7183453924e-10
-2.20917963225e-11
3.88783100812e-10
-2.32824644283e-11
4.06496763038e-10
-2.43682730854e-11
4.24870667579e-10
-2.53112429912e-11
4.43772222694e-10
-2.60718392952e-11
4.63041520371e-10
-2.66110393748e-11
4.82493288577e-10
-2.68926024139e-11
5.01920270411e-10
-2.6885180096e-11
5.21097656477e-10
-2.65638541758e-11
5.39787996542e-10
-2.59107850207e-11
5.57746000792e-10
-2.491494377e-11
5.74722873742e-10
-2.35712914544e-11
5.90470221029e-10
-2.18800252114e-11
6.04743913763e-10
-1.9846428046e-11
6.17308436895e-10
-1.74815509203e-11
6.27942286444e-10
-1.48038119287e-11
6.36445030299e-10
-1.18416227673e-11
6.42646395805e-10
-8.63666141025e-12
6.46416728439e-10
-5.24618872179e-12
6.47676791898e-10
-1.74224117355e-12
6.46404370378e-10
1.7931246816e-12
6.42635944333e-10
5.27529196321e-12
6.36463050323e-10
8.62515252636e-12
6.28024106923e-10
1.17759634497e-11
6.17493611485e-10
1.46772355458e-11
6.05071226524e-10
1.72947181281e-11
5.90972724192e-10
1.96073645007e-11
5.75423412154e-10
2.16033929292e-11
5.58653632954e-10
2.32770567483e-11
5.40895632018e-10
2.46265710095e-11
5.22381100668e-10
2.56531453386e-11
5.03338706385e-10
2.63610889076e-11
4.8399104384e-10
2.67587923353e-11
4.64550800154e-10
2.68600280087e-11
4.452163864e-10
2.6684855377e-11
4.26167605038e-10
2.62596374904e-11
4.07561984162e-10
2.56160784235e-11
3.89532258198e-10
2.47895237408e-11
3.72185226763e-10
2.38169137737e-11
3.55601979912e-10
2.27347659024e-11
3.39839296955e-10
2.15774600876e-11
3.24931923871e-10
2.03759763815e-11
3.1089540462e-10
1.91571220661e-11
2.97729164413e-10
1.79432067235e-11
2.85419597491e-10
1.67520782905e-11
2.73942978413e-10
1.55974171633e-11
2.6326808127e-10
1.44891898114e-11
2.53358446897e-10
1.343417948e-11
2.44174281026e-10
1.24365320722e-11
2.35673996036e-10
1.14982754105e-11
2.27815427291e-10
1.06197871233e-11
2.20556764546e-10
9.80019940281e-12
2.13857241838e-10
9.03773797906e-12
2.07677628316e-10
8.32999836738e-12
2.01980558663e-10
7.67416569874e-12
1.9673073719e-10
7.06718581829e-12
1.91895044243e-10
6.50589565014e-12
1.8744256879e-10
5.98712035378e-12
1.83344586164e-10
5.50774407493e-12
1.7957449615e-10
5.0647601367e-12
1.76107732799e-10
4.65530567065e-12
1.72921654732e-10
4.27668482024e-12
1.69995421854e-10
3.92638401128e-12
1.6730986262e-10
3.6020821864e-12
1.64847333841e-10
3.30165855345e-12
1.62591573683e-10
3.02320010574e-12
1.60527546626e-10
2.76501113299e-12
1.58641277913e-10
2.52562698156e-12
1.56919672949e-10
2.30383464279e-12
1.55350315521e-10
2.09870321417e-12
1.53921236077e-10
1.90962811387e-12
1.52620638823e-10
1.73639405389e-12
1.51436572903e-10
1.57926344611e-12
1.50356529658e-10
1.43909905887e-12
1.49366944701e-10
1.31753245587e-12
1.48452583748e-10
1.21719230404e-12
1.47595800082e-10
1.14200688724e-12
1.46775686661e-10
1.09758543937e-12
1.459672479e-10
1.09163984354e-12
1.45140991541e-10
1.13425921484e-12
1.44264069297e-10
1.23735504669e-12
1.4330588733e-10
1.41099451524e-12
1.42256861393e-10
1.64767143894e-12
1.86519194869e-12
9.76214003147e-10
1.90054004008e-10
9.6301325488e-10
3.06403316324e-10
9.06238518914e-10
3.0002846715e-10
8.34062054537e-10
2.5778419159e-10
7.61476627368e-10
2.12123016151e-10
6.94887045123e-10
1.72219074434e-10
6.36356287549e-10
1.39634154967e-10
5.85981513361e-10
1.13632654285e-10
5.43073694458e-10
9.29799163841e-11
5.06707092198e-10
7.65104421126e-11
4.75957815938e-10
6.32701771984e-11
4.49995449426e-10
5.25187457665e-11
4.2810828149e-10
4.36931810909e-11
4.09700534798e-10
3.63675844535e-11
3.94279344742e-10
3.02188366859e-11
3.81439349408e-10
2.50000306655e-11
3.7084811151e-10
2.05206771951e-11
3.62233479238e-10
1.66321964644e-11
3.5537307373e-10
1.32173348362e-11
3.50085727673e-10
1.01824334321e-11
3.46224584975e-10
7.45175114936e-12
3.43671564076e-10
4.96326659297e-12
3.4233291888e-10
2.66554866736e-12
3.42135674327e-10
5.15405141469e-13
3.43024754068e-10
-1.52389701949e-12
3.44960649586e-10
-3.48397846698e-12
3.47917515944e-10
-5.39237811939e-12
3.51881596238e-10
-7.2733380005e-12
3.56849890372e-10
-9.14838493481e-12
3.62828996964e-10
-1.10367459987e-11
3.69834063618e-10
-1.29556203599e-11
3.77887785016e-10
-1.4920319888e-11
3.8701938884e-10
-1.69442834904e-11
3.97263549078e-10
-1.90389642098e-11
4.08659163467e-10
-2.12135841778e-11
4.21247929513e-10
-2.3474750215e-11
4.35072651027e-10
-2.58259232815e-11
4.50175207751e-10
-2.82667385782e-11
4.66594124956e-10
-3.07921814945e-11
4.84361691945e-10
-3.33916388956e-11
5.03500600284e-10
-3.60478670011e-11
5.2402010841e-10
-3.87359468557e-11
5.45911791339e-10
-4.14223354045e-11
5.69145003898e-10
-4.40641610292e-11
5.93662270931e-10
-4.66089496345e-11
6.19374910553e-10
-4.89949891267e-11
6.46159282555e-10
-5.11525295813e-11
6.73854110564e-10
-5.30059554939e-11
7.02259326126e-10
-5.44769398315e-11
7.31136795881e-10
-5.5488394992e-11
7.60213100955e-10
-5.59687945598e-11
7.89184246007e-10
-5.58562137334e-11
8.17721837298e-10
-5.51013359134e-11
8.45479999906e-10
-5.36688404124e-11
8.72102263037e-10
-5.15371027411e-11
8.97227934965e-10
-4.86968632797e-11
9.20498017519e-10
-4.51500131062e-11
9.41561152125e-10
-4.09094751249e-11
9.60080194962e-10
-3.60005154053e-11
9.75739980011e-10
-3.04635299589e-11
9.88256967878e-10
-2.43585571908e-11
9.97391366698e-10
-1.77710223261e-11
1.00296102216e-09
-1.08158234347e-11
1.00485437818e-09
-3.63559452726e-12
1.00303910566e-09
3.60838151125e-12
9.9756425766e-10
1.07501064294e-11
9.88555561884e-10
1.76337979907e-11
9.76204786964e-10
2.41266729197e-11
9.60755537394e-10
3.01264064379e-11
9.4248881236e-10
3.55613533964e-11
9.2171093638e-10
4.03851417475e-11
8.98744539207e-10
4.45696844285e-11
8.73921949215e-10
4.80995359011e-11
8.47580183093e-10
5.09682226083e-11
8.20056808223e-10
5.31764031854e-11
7.91685876395e-10
5.47319020977e-11
7.62793203021e-10
5.56513461162e-11
7.33690725722e-10
5.59623851819e-11
7.04670285962e-10
5.57051747934e-11
6.75997580102e-10
5.49322229901e-11
6.47907082517e-10
5.37064558689e-11
6.20598534391e-10
5.20979521764e-11
5.94235275663e-10
5.01800535771e-11
5.68944395602e-10
4.80255281304e-11
5.44818454955e-10
4.57032843862e-11
5.21918405415e-10
4.32759114403e-11
5.00277292556e-10
4.07981227273e-11
4.79904352786e-10
3.83160369674e-11
4.60789179266e-10
3.58671453461e-11
4.42905712328e-10
3.34807810602e-11
4.26215890996e-10
3.11789118662e-11
4.10672872803e-10
2.89771024726e-11
3.96223785007e-10
2.68855290176e-11
3.82812010639e-10
2.49099635251e-11
3.70379039102e-10
2.30526771924e-11
3.58865926301e-10
2.13132356845e-11
3.48214415791e-10
1.96891770101e-11
3.38367773603e-10
1.81765741799e-11
3.2927138639e-10
1.67704916269e-11
3.20873167994e-10
1.5465347985e-11
3.13123813447e-10
1.42551989085e-11
3.05976933796e-10
1.31339535326e-11
2.99389099005e-10
1.20955370116e-11
2.93319811388e-10
1.11340103211e-11
2.87731426923e-10
1.02436568657e-11
2.82589038233e-10
9.41904416145e-12
2.77860329062e-10
8.65506745916e-12
2.73515407601e-10
7.94698128448e-12
2.69526622922e-10
7.29042392626e-12
2.65868367019e-10
6.68143948836e-12
2.62516862454e-10
6.11650166912e-12
2.59449934153e-10
5.59254348899e-12
2.56646761745e-10
5.10699721855e-12
2.54087607594e-10
4.65784926089e-12
2.51753513895e-10
4.24371518863e-12
2.49625961704e-10
3.86394089586e-12
2.47686484656e-10
3.51873620443e-12
2.45916233191e-10
3.20934711645e-12
2.44295492444e-10
2.93827049521e-12
2.42803174942e-10
2.70950766172e-12
2.41416346219e-10
2.52883389933e-12
2.40109917006e-10
2.40401330111e-12
2.38856782344e-10
2.34477346693e-12
2.37628966119e-10
2.36207472281e-12
2.36400808446e-10
2.46551231489e-12
2.35155971624e-10
2.65583122702e-12
2.33898789504e-10
2.90485360628e-12
3.10723719443e-12
9.71792471539e-10
1.55761508078e-10
9.86809239204e-10
2.91386496732e-10
9.68500061812e-10
3.18337595186e-10
9.2848558761e-10
2.97798618523e-10
8.78617822966e-10
2.61990734468e-10
8.2641387973e-10
2.24422972381e-10
7.76018000998e-10
1.9002998958e-10
7.2945811541e-10
1.60192497022e-10
6.87543832378e-10
1.34894157924e-10
6.50423473758e-10
1.13630760711e-10
6.17909934654e-10
9.57836778758e-11
5.89664389625e-10
8.07642541169e-11
5.65296435777e-10
6.80611001695e-11
5.44416418072e-10
5.72475694826e-11
5.26660967902e-10
4.79742564611e-11
5.117038693e-10
3.99571013556e-11
4.99259126604e-10
3.29653946666e-11
4.8908008149e-10
2.68112192542e-11
4.80956699667e-10
2.13406974414e-11
4.74712170197e-10
1.6426947006e-11
4.70199411872e-10
1.1964497104e-11
4.67297776842e-10
7.86489298119e-12
4.659100749e-10
4.0532458847e-12
4.65959952526e-10
4.65526891703e-13
4.67389614126e-10
-2.95355498586e-12
4.70157845675e-10
-6.25220197607e-12
4.74238305719e-10
-9.4728256037e-12
4.79618028444e-10
-1.26530435489e-11
4.86296086329e-10
-1.58264209692e-11
4.94282360551e-10
-1.9022993665e-11
5.03596365516e-10
-2.22695940766e-11
5.1426607208e-10
-2.55899905548e-11
5.26326670973e-10
-2.90048419272e-11
5.39819214459e-10
-3.25314628036e-11
5.54789070114e-10
-3.61833906782e-11
5.71284117124e-10
-3.99697440138e-11
5.89352613181e-10
-4.38943623238e-11
6.09040661105e-10
-4.79547259771e-11
6.30389210374e-10
-5.21406670658e-11
6.53430542973e-10
-5.64329050035e-11
6.78184218464e-10
-6.0801473636e-11
7.04652493594e-10
-6.52041512271e-11
7.32815290034e-10
-6.95850596905e-11
7.62624861614e-10
-7.3873659582e-11
7.94000407471e-10
-7.79844221257e-11
8.26822982572e-10
-8.18174910317e-11
8.60931156588e-10
-8.5260631028e-11
8.96117942058e-10
-8.81926693842e-11
9.32129521462e-10
-9.048844889e-11
9.68666215639e-10
-9.20250201574e-11
1.00538592536e-09
-9.26884365716e-11
1.04190993929e-09
-9.23801611277e-11
1.07783058161e-09
-9.10219127071e-11
1.1127198027e-09
-8.85579968713e-11
1.14613771517e-09
-8.49549515353e-11
1.17764043419e-09
-8.01995199263e-11
1.20678730137e-09
-7.42968198885e-11
1.23314815458e-09
-6.72702709748e-11
1.25631130166e-09
-5.91636096087e-11
1.27589263403e-09
-5.00448157094e-11
1.29154669017e-09
-4.00125749021e-11
1.30298084926e-09
-2.92051530862e-11
1.30997223431e-09
-1.78071918275e-11
1.31238375952e-09
-6.04711577318e-12
1.31017469395e-09
5.81743808516e-12
1.30340322846e-09
1.75215504526e-11
1.29222083215e-09
2.88161614828e-11
1.27685938495e-09
3.94880774561e-11
1.25761382155e-09
4.93719190783e-11
1.23482471189e-09
5.83504058959e-11
1.20886418448e-09
6.63456071946e-11
1.18012561349e-09
7.33081899431e-11
1.14901585317e-09
7.92092282408e-11
1.11594906978e-09
8.40349361647e-11
1.08134155178e-09
8.77838499058e-11
1.0456066144e-09
9.04667669605e-11
1.00914866034e-09
9.21092264757e-11
9.72356056774e-10
9.27549138497e-11
9.35593312232e-10
9.24678431375e-11
8.99193531478e-10
9.13319261876e-11
8.63452138308e-10
8.94477701153e-11
8.28622552364e-10
8.69274579408e-11
7.94914106388e-10
8.38884183201e-11
7.62492137738e-10
8.04474147927e-11
7.31479940593e-10
7.67153991477e-11
7.01962131696e-10
7.27936379598e-11
6.73988946338e-10
6.87712261366e-11
6.47581015393e-10
6.47238868239e-11
6.22734249944e-10
6.07138309972e-11
5.99424552259e-10
5.67904006524e-11
5.77612162927e-10
5.2991225214e-11
5.57245532923e-10
4.93436589782e-11
5.38264671971e-10
4.58663193049e-11
5.20603970042e-10
4.25705979397e-11
5.04194519182e-10
3.94620639601e-11
4.88965981043e-10
3.65417133836e-11
4.74848054301e-10
3.38070471426e-11
4.61771598669e-10
3.12529771617e-11
4.49669470292e-10
2.88725713815e-11
4.38477119079e-10
2.66576546272e-11
4.28132992722e-10
2.45992847128e-11
4.18578786189e-10
2.26881234525e-11
4.09759569271e-10
2.09147211349e-11
4.01623819194e-10
1.92697312656e-11
3.94123380073e-10
1.77440703258e-11
3.87213366534e-10
1.6329035304e-11
3.80852024737e-10
1.50163898897e-11
3.7500056078e-10
1.37984286705e-11
3.69622943317e-10
1.26680273615e-11
3.64685684925e-10
1.1618686155e-11
3.6015760436e-10
1.0644572563e-11
3.5600957026e-10
9.74056973961e-12
3.52214225198e-10
8.90233602239e-12
3.48745688203e-10
8.12638137694e-12
3.45579233436e-10
7.41016624926e-12
3.42690943752e-10
6.75222786101e-12
3.40057340554e-10
6.15233748945e-12
3.37654997675e-10
5.61168873066e-12
3.35460158614e-10
5.13310878702e-12
3.33448397778e-10
4.72126809639e-12
3.3159440252e-10
4.38282900843e-12
3.29872012733e-10
4.12640310919e-12
3.28254747154e-10
3.96203917577e-12
3.26717169499e-10
3.89965258642e-12
3.2523754511e-10
3.94513695529e-12
3.23801884576e-10
4.09149200003e-12
3.22406841287e-10
4.29989709085e-12
4.46647019034e-12
9.64024226848e-10
1.29237254188e-10
9.87999233369e-10
2.67411434154e-10
9.9044181153e-10
3.15894963677e-10
9.73429384487e-10
3.14810994692e-10
9.43897142453e-10
2.91522926648e-10
9.07879507247e-10
2.60440558717e-10
8.69559968259e-10
2.28349480753e-10
8.31576082445e-10
1.98176336142e-10
7.95476644634e-10
1.70993550236e-10
7.62095600699e-10
1.47011760446e-10
7.3181675267e-10
1.26062483126e-10
7.04750538463e-10
1.07830427114e-10
6.80848466721e-10
9.19631324304e-11
6.59975634334e-10
7.81203642971e-11
6.41955828601e-10
6.5994026708e-11
6.26599002283e-10
5.53138944694e-11
6.13717556623e-10
4.58468095925e-11
6.03135598023e-10
3.73931497894e-11
5.94693837269e-10
2.97824329891e-11
5.88251828181e-10
2.28689339403e-11
5.83688616693e-10
1.65276896697e-11
5.80902471023e-10
1.06510231403e-11
5.79810107994e-10
5.14559697029e-12
5.80345668028e-10
-7.00413670854e-14
5.82459584192e-10
-5.06747553237e-12
5.86117425862e-10
-9.91004408108e-12
5.91298770124e-10
-1.46541662805e-11
5.97996099419e-10
-1.93503651901e-11
6.06213719869e-10
-2.40440296917e-11
6.15966679277e-10
-2.87759372963e-11
6.27279653114e-10
-3.35825481571e-11
6.4018575816e-10
-3.84960719715e-11
6.54725245643e-10
-4.35443020568e-11
6.70944018677e-10
-4.87502049502e-11
6.88891912335e-10
-5.41312501447e-11
7.08620669392e-10
-5.9698463842e-11
7.30181541462e-10
-6.54551944275e-11
7.53622445415e-10
-7.13955875661e-11
7.78984610649e-10
-7.75027879044e-11
8.06298666659e-10
-8.37469149907e-11
8.35580145988e-10
-9.00829057428e-11
8.66824418676e-10
-9.64483759586e-11
9.00001134734e-10
-1.0276172754e-10
9.35048333144e-10
-1.08920810033e-10
9.71866479042e-10
-1.14802520807e-10
1.01031280847e-09
-1.20263774452e-10
1.05019647767e-09
-1.25144255825e-10
1.09127510563e-09
-1.29271254835e-10
1.13325332861e-09
-1.32466631395e-10
1.17578391109e-09
-1.34555564136e-10
1.21847173787e-09
-1.35376226591e-10
1.2608806242e-09
-1.34789012012e-10
1.30254235251e-09
-1.32683606339e-10
1.34296682006e-09
-1.28982429937e-10
1.381651966e-09
-1.2364006272e-10
1.41809258317e-09
-1.16640101777e-10
1.45178816258e-09
-1.07992363521e-10
1.48225077174e-09
-9.77328443853e-11
1.50901374606e-09
-8.59265492202e-11
1.53164131762e-09
-7.26723550688e-11
1.54974007896e-09
-5.81113084291e-11
1.56297465292e-09
-4.24397056017e-11
1.57108795489e-09
-2.59204805349e-11
1.57392107565e-09
-8.88023261339e-12
1.57142608711e-09
8.31242090674e-12
1.56366895584e-09
2.52786669983e-11
1.55082288742e-09
4.16622075548e-11
1.53315292914e-09
5.71580075442e-11
1.51099485123e-09
7.15299647447e-11
1.48473452498e-09
8.46106974369e-11
1.45479248529e-09
9.62876108535e-11
1.42161335534e-09
1.0648728322e-10
1.38565775808e-09
1.15164788381e-10
1.34739565118e-09
1.22297005362e-10
1.30730077003e-09
1.27878692397e-10
1.26584516349e-09
1.31922333423e-10
1.22349249893e-09
1.34461849111e-10
1.18068967424e-09
1.35557694352e-10
1.13785745448e-09
1.35300016119e-10
1.09538146052e-09
1.33807870574e-10
1.05360475029e-09
1.3122442792e-10
1.01282277499e-09
1.27709378095e-10
9.73280979667e-10
1.23430156039e-10
9.35174908466e-10
1.18553426283e-10
8.98652410276e-10
1.13237835962e-10
8.63817411894e-10
1.07628573767e-10
8.3073470547e-10
1.01853869273e-10
7.99435249888e-10
9.60232788914e-11
7.69921578919e-10
9.02274387039e-11
7.42173014921e-10
8.45389021036e-11
7.16150487192e-10
7.90136915566e-11
6.91800838836e-10
7.36932475294e-11
6.69060571663e-10
6.86065286447e-11
6.47859025754e-10
6.37720883441e-11
6.28121021487e-10
5.92000153662e-11
6.09769010436e-10
5.48936744876e-11
5.92724790815e-10
5.08512199471e-11
5.76910845927e-10
4.70668785327e-11
5.62251362529e-10
4.35320146668e-11
5.48672982024e-10
4.02359984841e-11
5.36105331799e-10
3.7166901752e-11
5.24481378157e-10
3.43120473274e-11
5.13737636115e-10
3.16584367357e-11
5.03814265727e-10
2.91930784119e-11
4.94655079256e-10
2.69032365886e-11
4.86207478928e-10
2.47766182766e-11
4.78422340772e-10
2.28015133319e-11
4.71253856652e-10
2.09669005057e-11
4.64659343381e-10
1.92625305491e-11
4.58599025408e-10
1.76789960212e-11
4.53035795319e-10
1.62077962955e-11
4.47934954831e-10
1.48414054079e-11
4.43263937698e-10
1.35733496612e-11
4.389920155e-10
1.23983012111e-11
4.35089987463e-10
1.13121928647e-11
4.31529857046e-10
1.03123576292e-11
4.28284501221e-10
9.39769327498e-12
4.25327344444e-10
8.56884593405e-12
4.22632059137e-10
7.82839484841e-12
4.20172330189e-10
7.18099800631e-12
4.1792174388e-10
6.63341637996e-12
4.15853892702e-10
6.19425536233e-12
4.13942820915e-10
5.87311198236e-12
4.12163943209e-10
5.6785312052e-12
4.10495435394e-10
5.61364550903e-12
4.08919419348e-10
5.66750855184e-12
4.07419813771e-10
5.79950294707e-12
5.91721478428e-12
9.57675094167e-10
1.09062131069e-10
9.82998941474e-10
2.42087527537e-10
9.95984459448e-10
3.02909389472e-10
9.93871212443e-10
3.16924187879e-10
9.79793423611e-10
3.05600662673e-10
9.57843027541e-10
2.82390902957e-10
9.31463519464e-10
2.54728938014e-10
9.03181603235e-10
2.26458202605e-10
8.74730541138e-10
1.99444563667e-10
8.47243255813e-10
1.74498998294e-10
8.21424372864e-10
1.51881319901e-10
7.97683179669e-10
1.3157157558e-10
7.76230585243e-10
1.13415683728e-10
7.57147766024e-10
9.72031421599e-11
7.40433894152e-10
8.27078591745e-11
7.26038882477e-10
6.97088688742e-11
7.13885584887e-10
5.80000722336e-11
7.03884660503e-10
4.73940417347e-11
6.95944377085e-10
3.77226866615e-11
6.89976948025e-10
2.88363361302e-11
6.85902510759e-10
2.06021031134e-11
6.8365151132e-10
1.29020019702e-11
6.83166019486e-10
5.63107155746e-12
6.84400331883e-10
-1.30436751432e-12
6.8732109502e-10
-7.98824881143e-12
6.91907116204e-10
-1.44960717084e-11
6.98148968431e-10
-2.08960211952e-11
7.06048437374e-10
-2.72498330362e-11
7.15617843873e-10
-3.3613431319e-11
7.26879250642e-10
-4.00373354647e-11
7.39863544369e-10
-4.65668296445e-11
7.54609370376e-10
-5.32418822264e-11
7.71161885113e-10
-6.00967977018e-11
7.89571281543e-10
-6.71595791575e-11
8.09891033454e-10
-7.44509769523e-11
8.32175797359e-10
-8.19832000461e-11
8.5647890538e-10
-8.97582724697e-11
8.82849380732e-10
-9.7766031008e-11
9.11328410873e-10
-1.05981784585e-10
9.41945224894e-10
-1.14363694408e-10
9.74712344697e-10
-1.22849990241e-10
1.00962021847e-09
-1.31356214194e-10
1.04663130454e-09
-1.39772778346e-10
1.08567375818e-09
-1.47963229205e-10
1.12663498467e-09
-1.55763714166e-10
1.16935545507e-09
-1.62984213556e-10
1.21362332253e-09
-1.69412094292e-10
1.25917050059e-09
-1.74818406528e-10
1.30567092847e-09
-1.78967035678e-10
1.35274170033e-09
-1.81626315061e-10
1.39994751651e-09
-1.82582024139e-10
1.44680847471e-09
-1.81649953182e-10
1.49281055075e-09
-1.78685666069e-10
1.53741736263e-09
-1.73589225158e-10
1.58008138519e-09
-1.66304067252e-10
1.62025330299e-09
-1.56811999301e-10
1.65738977222e-09
-1.45128809768e-10
1.69096125029e-09
-1.31304296847e-10
1.72046094551e-09
-1.15426217006e-10
1.74541427809e-09
-9.76256599383e-11
1.76538958408e-09
-7.80865887169e-11
1.78001463783e-09
-5.70647383617e-11
1.789001249e-09
-3.49070780412e-11
1.79217050401e-09
-1.20494831897e-11
1.78946827222e-09
1.10146473462e-11
1.78096822838e-09
3.37786965646e-11
1.76686409352e-09
5.57663212893e-11
1.74745119038e-09
7.65708853176e-11
1.72310020799e-09
9.58809201753e-11
1.69423255047e-09
1.13478328475e-10
1.66130420687e-09
1.29215929712e-10
1.6247960997e-09
1.42995367797e-10
1.58520639255e-09
1.54754474768e-10
1.54304381017e-09
1.64459567949e-10
1.49882239208e-09
1.72100090527e-10
1.45305639341e-09
1.77688310879e-10
1.40625328658e-09
1.81264932507e-10
1.35890420526e-09
1.82906749245e-10
1.31147294811e-09
1.82731243261e-10
1.26438540168e-09
1.80895383098e-10
1.21802095865e-09
1.77588833065e-10
1.17270681202e-09
1.73023483049e-10
1.12871534435e-09
1.67421578615e-10
1.08626436027e-09
1.61004362339e-10
1.04551963607e-09
1.53982509754e-10
1.00659914748e-09
1.46549010147e-10
9.69578343238e-10
1.38874620074e-10
9.34495913957e-10
1.31105654047e-10
9.0135962346e-10
1.23363674916e-10
8.70151893111e-10
1.15746578508e-10
8.40834940442e-10
1.08330591086e-10
8.13355362778e-10
1.01172773295e-10
7.87648123187e-10
9.43137179781e-11
7.63639942305e-10
8.77802209733e-11
7.41252129062e-10
8.15877826802e-11
7.20402900344e-10
7.5742859873e-11
7.01009247574e-10
7.02448322043e-11
6.82988410101e-10
6.50876784819e-11
6.66259013291e-10
6.02613770551e-11
6.50741924918e-10
5.57530555985e-11
6.3636087794e-10
5.15479206421e-11
6.23042901827e-10
4.76299984828e-11
6.10718598664e-10
4.39827179872e-11
5.99322294655e-10
4.05893634327e-11
5.8879209251e-10
3.7433422514e-11
5.79069845601e-10
3.4498851557e-11
5.7010107072e-10
3.17702769774e-11
5.61834812798e-10
2.92331493772e-11
5.54223471933e-10
2.68738643315e-11
5.47222600608e-10
2.46798620154e-11
5.40790676919e-10
2.26397161892e-11
5.3488885811e-10
2.07432217521e-11
5.29480717604e-10
1.89814888328e-11
5.24531968298e-10
1.73470501266e-11
5.20010175075e-10
1.58339864641e-11
5.15884460706e-10
1.44380729812e-11
5.12125211678e-10
1.3156943739e-11
5.08703794582e-10
1.19902647816e-11
5.05592299707e-10
1.09398916599e-11
5.02763336887e-10
1.00099628324e-11
5.00189918482e-10
9.20683674975e-12
4.97845472269e-10
8.53870340315e-12
4.95704020175e-10
8.01456568515e-12
4.93740498471e-10
7.64205423967e-12
4.91930967638e-10
7.42317736832e-12
4.90251767829e-10
7.34670905384e-12
4.88675096732e-10
7.37617443274e-12
7.43541382268e-12
9.53091051758e-10
9.34710483389e-11
9.77048455333e-10
2.18130061837e-10
9.94969035324e-10
2.84988750624e-10
1.00211185627e-09
3.09781310857e-10
9.99087251482e-10
3.08625212531e-10
9.88291046499e-10
2.93187054027e-10
9.72254587455e-10
2.70765344153e-10
9.53101891346e-10
2.45610846821e-10
9.3245767798e-10
2.20088726185e-10
9.11504284978e-10
1.9545234157e-10
8.91072440974e-10
1.72313115406e-10
8.71727270601e-10
1.50916698817e-10
8.53839156344e-10
1.31303752366e-10
8.37638816269e-10
1.134034383e-10
8.23258866937e-10
9.70877664321e-11
8.10764647329e-10
8.22030484492e-11
8.00176809235e-10
6.85878725225e-11
7.91487718447e-10
5.60830971307e-11
7.84673260031e-10
4.45371122825e-11
7.79701259088e-10
3.38083070554e-11
7.76537424206e-10
2.37659109298e-11
7.75149485831e-10
1.4289916394e-11
7.75510023412e-10
5.27051329411e-12
7.77598341876e-10
-3.39270325704e-12
7.81401644038e-10
-1.17915647297e-11
7.86915708584e-10
-2.00101463984e-11
7.94145189396e-10
-2.81255084725e-11
8.03103618591e-10
-3.62082649856e-11
8.13813169023e-10
-4.43229807954e-11
8.26304205369e-10
-5.25283671858e-11
8.40614632312e-10
-6.0877248371e-11
8.56789031522e-10
-6.94162697503e-11
8.74877564889e-10
-7.81853160735e-11
8.94934608971e-10
-8.72166051388e-11
9.17017074643e-10
-9.65334216531e-11
9.41182356377e-10
-1.06148458217e-10
9.67485848094e-10
-1.16061738338e-10
9.95977957838e-10
-1.26258112961e-10
1.02670055364e-09
-1.36704351025e-10
1.05968278021e-09
-1.47345890452e-10
1.09493620448e-09
-1.58103383278e-10
1.13244928253e-09
-1.6886926078e-10
1.17218119691e-09
-1.79504661589e-10
1.21405519908e-09
-1.8983720115e-10
1.25795170986e-09
-1.99660196271e-10
1.30370158234e-09
-2.08734059547e-10