/*--------------------------------*- C++ -*----------------------------------*\
  =========                 |
  \\      /  F ield         | OpenFOAM: The Open Source CFD Toolbox
   \\    /   O peration     | Website:  https://openfoam.org
    \\  /    A nd           | Version:  7
     \\/     M anipulation  |
\*---------------------------------------------------------------------------*/
FoamFile
{
    version     2.0;
    format      ascii;
    class       volVectorField;
    location    "240";
    object      U;
}
// * * * * * * * * * * * * * * * * * * * * * * * * * * * * * * * * * * * * * //

dimensions      [0 1 -1 0 0 0 0];

internalField   nonuniform List<vector> 
8192
(
(0.00104343906426 0.00015656093574 0)
(0.000759255927051 0.000127622185666 0)
(0.000549233927178 8.23997831427e-05 0)
(0.000414001044401 5.28330701424e-05 0)
(0.000326252995984 3.49149500971e-05 0)
(0.000267332513745 2.40055045994e-05 0)
(0.000226167050664 1.715993177e-05 0)
(0.00019631288252 1.26942107091e-05 0)
(0.000173957427976 9.66121935487e-06 0)
(0.000156774887722 7.5212976956e-06 0)
(0.000143294745599 5.95882257488e-06 0)
(0.000132552723239 4.78317936645e-06 0)
(0.000123894285014 3.875239963e-06 0)
(0.000116861054767 3.15797301783e-06 0)
(0.000111123144514 2.57992172264e-06 0)
(0.000106437552098 2.10565707066e-06 0)
(0.00010262178459 1.71009885601e-06 0)
(9.95366390628e-05 1.37503729398e-06 0)
(9.70746535862e-05 1.08694118362e-06 0)
(9.51521688909e-05 8.35539073174e-07 0)
(9.37037507734e-05 6.12877355176e-07 0)
(9.26781944483e-05 4.12680225183e-07 0)
(9.2035613327e-05 2.29905293752e-07 0)
(9.17452868109e-05 6.04289630599e-08 0)
(9.17840494313e-05 -9.91802993041e-08 0)
(9.2135071701e-05 -2.5182694403e-07 0)
(9.27869278557e-05 -4.00010247053e-07 0)
(9.37328773872e-05 -5.45916194685e-07 0)
(9.49703063562e-05 -6.91485377551e-07 0)
(9.65002857511e-05 -8.38462143482e-07 0)
(9.83272129905e-05 -9.88428587361e-07 0)
(0.000100458508128 -1.1428252655e-06 0)
(0.000102904339064 -1.30295948423e-06 0)
(0.000105677350832 -1.47000109494e-06 0)
(0.000108792373347 -1.64496514698e-06 0)
(0.000112266080114 -1.82868021321e-06 0)
(0.000116116567922 -2.02174103229e-06 0)
(0.000120362824809 -2.22444415553e-06 0)
(0.000125024051677 -2.4367059374e-06 0)
(0.000130118802817 -2.65796346306e-06 0)
(0.000135663914086 -2.88706126926e-06 0)
(0.000141673196476 -3.12213002055e-06 0)
(0.000148155889655 -3.36046779297e-06 0)
(0.000155114896641 -3.59843993329e-06 0)
(0.000162544858139 -3.83141884599e-06 0)
(0.00017043017173 -4.05378905903e-06 0)
(0.000178743112222 -4.25904331318e-06 0)
(0.000187442255216 -4.43998967971e-06 0)
(0.000196471431487 -4.58907526178e-06 0)
(0.000205759426913 -4.6988080306e-06 0)
(0.00021522057424 -4.76222685421e-06 0)
(0.000224756252495 -4.77333911231e-06 0)
(0.000234257133947 -4.72743066389e-06 0)
(0.000243605849344 -4.62117416371e-06 0)
(0.000252679660667 -4.45252829643e-06 0)
(0.000261352806902 -4.22051154159e-06 0)
(0.00026949841449 -3.92499310711e-06 0)
(0.000276990129826 -3.56662399875e-06 0)
(0.000283703809595 -3.14696378332e-06 0)
(0.000289519690222 -2.66883287309e-06 0)
(0.000294325525868 -2.13692876672e-06 0)
(0.000298021140171 -1.55862347925e-06 0)
(0.000300524380526 -9.44568641661e-07 0)
(0.000301777582327 -3.08600331267e-07 0)
(0.000301752940993 3.33257927392e-07 0)
(0.00030045526565 9.64416465995e-07 0)
(0.000297921349392 1.56948152943e-06 0)
(0.000294216090987 2.13574173069e-06 0)
(0.000289426324092 2.65397407055e-06 0)
(0.000283653920782 3.1183635635e-06 0)
(0.000277009728319 3.52575036101e-06 0)
(0.000269609191624 3.87469687357e-06 0)
(0.000261569648745 4.16474765912e-06 0)
(0.000253008817444 4.3959783825e-06 0)
(0.000244043919901 4.56880880512e-06 0)
(0.000234790935448 4.68406177754e-06 0)
(0.000225363536672 4.74322093167e-06 0)
(0.000215871438557 4.74875996099e-06 0)
(0.000206418180616 4.70438039718e-06 0)
(0.000197098637688 4.6150451753e-06 0)
(0.000187996686482 4.48678935301e-06 0)
(0.000179183415341 4.326366153e-06 0)
(0.00017071611583 4.1408190941e-06 0)
(0.000162638118992 3.9370651661e-06 0)
(0.000154979394598 3.72154864848e-06 0)
(0.000147757742245 3.49999543945e-06 0)
(0.000140980368256 3.27727290416e-06 0)
(0.000134645649435 3.05734318837e-06 0)
(0.000128744917552 2.84328916035e-06 0)
(0.00012326414261 2.63738969724e-06 0)
(0.000118185437446 2.44122306077e-06 0)
(0.000113488344594 2.25578126706e-06 0)
(0.000109150895603 2.0815832536e-06 0)
(0.000105150452971 1.91877910765e-06 0)
(0.000101464356648 1.76724125549e-06 0)
(9.80704026925e-05 1.62664113617e-06 0)
(9.49471828394e-05 1.49651159693e-06 0)
(9.2074312318e-05 1.37629626587e-06 0)
(8.94325702265e-05 1.26538761002e-06 0)
(8.70039732379e-05 1.16315555575e-06 0)
(8.47717997328e-05 1.06896843523e-06 0)
(8.272057809e-05 9.82207888597e-07 0)
(8.08360498592e-05 9.02279076254e-07 0)
(7.91051160206e-05 8.28617383173e-07 0)
(7.75157724263e-05 7.60692531672e-07 0)
(7.60570388111e-05 6.98010899848e-07 0)
(7.47188843674e-05 6.40116639905e-07 0)
(7.34921517362e-05 5.86592142167e-07 0)
(7.23684803129e-05 5.37058258234e-07 0)
(7.13402289101e-05 4.91174717654e-07 0)
(7.04003970199e-05 4.48641114592e-07 0)
(6.95425430539e-05 4.09198939656e-07 0)
(6.87606969595e-05 3.72635174094e-07 0)
(6.80492633423e-05 3.38788186977e-07 0)
(6.74029095214e-05 3.07556905959e-07 0)
(6.68164304953e-05 2.78914733949e-07 0)
(6.62845791687e-05 2.52930373371e-07 0)
(6.58018445967e-05 2.29798981059e-07 0)
(6.53621521588e-05 2.09889087752e-07 0)
(6.49584451257e-05 1.9381428213e-07 0)
(6.45820830594e-05 1.82544698704e-07 0)
(6.42219521353e-05 1.77583607052e-07 0)
(6.38631163653e-05 1.81249926381e-07 0)
(6.34847417461e-05 1.97122786277e-07 0)
(6.30569396989e-05 2.30677674246e-07 0)
(6.25364603608e-05 2.89800425732e-07 0)
(6.18635258075e-05 3.83133273728e-07 0)
(6.09887050081e-05 4.91687044526e-07 0)
(0.00121014938073 0.000302972475565 0)
(0.0011602712416 0.000315271860649 0)
(0.00102696105776 0.000238082201027 0)
(0.000887722462039 0.000171622044027 0)
(0.000767377368363 0.000124219034807 0)
(0.000669390782548 9.16084065797e-05 0)
(0.000591047064533 6.9066132193e-05 0)
(0.000528509888345 5.31792790864e-05 0)
(0.000478334036008 4.17073858181e-05 0)
(0.000437778261046 3.32133781526e-05 0)
(0.000404752860048 2.67722209254e-05 0)
(0.000377685320831 2.17792825305e-05 0)
(0.000355391732928 1.78311074137e-05 0)
(0.000336974731446 1.46522866733e-05 0)
(0.000321747773032 1.20504313899e-05 0)
(0.000309180379515 9.88809369041e-06 0)
(0.000298858823706 8.06495206113e-06 0)
(0.000290457838154 6.50628831432e-06 0)
(0.000283720110454 5.15538362998e-06 0)
(0.000278441279503 3.96840023545e-06 0)
(0.000274458840559 2.91086942598e-06 0)
(0.000271643852589 1.95523737876e-06 0)
(0.000269894675558 1.07912052943e-06 0)
(0.000269132194204 2.64045693055e-07 0)
(0.000269296141642 -5.05472594867e-07 0)
(0.00027034224275 -1.24261260893e-06 0)
(0.000272239972664 -1.95875380232e-06 0)
(0.000274970779976 -2.66386072806e-06 0)
(0.000278526658017 -3.36676674623e-06 0)
(0.000282908970071 -4.0753783621e-06 0)
(0.000288127451176 -4.79681374208e-06 0)
(0.000294199319217 -5.53748291097e-06 0)
(0.000301148433375 -6.30311290786e-06 0)
(0.00030900443966 -7.09871788925e-06 0)
(0.000317801842349 -7.92851182112e-06 0)
(0.000327578937454 -8.79575977588e-06 0)
(0.000338376541033 -9.7025634213e-06 0)
(0.000350236442618 -1.06495772151e-05 0)
(0.000363199514118 -1.16356549757e-05 0)
(0.000377303409949 -1.26574323612e-05 0)
(0.000392579807867 -1.37088603948e-05 0)
(0.000409051165833 -1.47807187665e-05 0)
(0.000426727011794 -1.58601553504e-05 0)
(0.000445599843023 -1.69303185377e-05 0)
(0.000465640789774 -1.79701684924e-05 0)
(0.000486795289633 -1.89545662932e-05 0)
(0.000508979112864 -1.98547380878e-05 0)
(0.000532075155595 -2.06391851941e-05 0)
(0.000555931449775 -2.12750524107e-05 0)
(0.000580360795562 -2.17298732305e-05 0)
(0.000605142277727 -2.19734923991e-05 0)
(0.000630024677752 -2.19798543738e-05 0)
(0.000654731473209 -2.17282973364e-05 0)
(0.000678966817933 -2.12040765769e-05 0)
(0.000702421758294 -2.03980923092e-05 0)
(0.000724780079702 -1.93061380724e-05 0)
(0.000745723580654 -1.79282092424e-05 0)
(0.000764937046267 -1.62683379482e-05 0)
(0.000782113504421 -1.43351563723e-05 0)
(0.000796960462937 -1.21432725074e-05 0)
(0.000809207882716 -9.71556733776e-06 0)
(0.000818618512707 -7.08608678181e-06 0)
(0.000825000399517 -4.3021294236e-06 0)
(0.000828219853016 -1.42363468234e-06 0)
(0.000828211943856 1.48085772361e-06 0)
(0.000824985801415 4.34060332245e-06 0)
(0.00081862335658 7.08957914629e-06 0)
(0.000809271780637 9.67235833851e-06 0)
(0.000797131339781 1.20474048199e-05 0)
(0.000782441496326 1.41869831655e-05 0)
(0.000765468128458 1.60744636415e-05 0)
(0.000746493527262 1.77008683483e-05 0)
(0.000725809308869 1.9062063978e-05 0)
(0.000703711529582 2.01569838286e-05 0)
(0.000680497108919 2.09868218218e-05 0)
(0.000656460676514 2.15551586784e-05 0)
(0.000631891040144 2.18688480263e-05 0)
(0.000607066780156 2.19391778865e-05 0)
(0.000582250999395 2.17826878384e-05 0)
(0.000557685754521 2.14212131692e-05 0)
(0.000533586937088 2.08810795441e-05 0)
(0.00051014031511 2.01916613471e-05 0)
(0.000487499190375 1.93836439093e-05 0)
(0.000465783812272 1.84873153436e-05 0)
(0.000445082417195 1.75311231046e-05 0)
(0.000425453581329 1.65406203236e-05 0)
(0.000406929490234 1.55378310265e-05 0)
(0.000389519724181 1.45409954914e-05 0)
(0.000373215207619 1.35646192663e-05 0)
(0.000357992048578 1.26197366818e-05 0)
(0.000343815078197 1.17143045401e-05 0)
(0.000330640978027 1.08536561342e-05 0)
(0.000318420945871 1.00409637798e-05 0)
(0.00030710289732 9.27767537038e-06 0)
(0.000296633230929 8.56390501437e-06 0)
(0.000286958202776 7.89876875397e-06 0)
(0.000278024964085 7.28066390353e-06 0)
(0.000269782316898 6.70749522099e-06 0)
(0.000262181239666 6.17685365722e-06 0)
(0.000255175229346 5.68615447945e-06 0)
(0.000248720500117 5.23274165132e-06 0)
(0.000242776072341 4.81396491502e-06 0)
(0.00023730377917 4.42723528421e-06 0)
(0.000232268212681 4.07006387066e-06 0)
(0.000227636626527 3.74008816089e-06 0)
(0.00022337880802 3.4350891848e-06 0)
(0.000219466929015 3.15300240713e-06 0)
(0.000215875382063 2.89192474146e-06 0)
(0.000212580605735 2.65011973244e-06 0)
(0.000209560900815 2.42602278533e-06 0)
(0.000206796236998 2.21824823971e-06 0)
(0.000204268047706 2.02560020785e-06 0)
(0.000201959008552 1.84708934548e-06 0)
(0.000199852792621 1.68195824405e-06 0)
(0.000197933793023 1.52971889883e-06 0)
(0.000196186799936 1.39020692844e-06 0)
(0.000194596615504 1.26365897888e-06 0)
(0.000193147585639 1.15082237874e-06 0)
(0.00019182302359 1.05310985951e-06 0)
(0.000190604498207 9.72817356717e-07 0)
(0.000189470965651 9.1342910654e-07 0)
(0.000188397751515 8.80038288252e-07 0)
(0.000187355478119 8.79899426247e-07 0)
(0.000186309273242 9.23048683775e-07 0)
(0.000185219238936 1.02258490413e-06 0)
(0.000184044772241 1.19283691549e-06 0)
(0.000182760159183 1.43764299465e-06 0)
(0.00018138674673 1.68540989169e-06 0)
(0.00122477696201 0.00026804610239 0)
(0.00124110544514 0.000383747797431 0)
(0.00119632113523 0.00034770063686 0)
(0.00111379236701 0.000283770856503 0)
(0.00102114475642 0.000225062815047 0)
(0.000932072750394 0.000177823109618 0)
(0.00085199573291 0.000141272059602 0)
(0.000782296192583 0.000113209967119 0)
(0.000722595333004 9.15533129491e-05 0)
(0.00067185970346 7.4658763409e-05 0)
(0.000628905541207 6.13063117575e-05 0)
(0.000592610089833 5.06081004546e-05 0)
(0.000561986387786 4.19195033489e-05 0)
(0.000536197642425 3.47695677057e-05 0)
(0.000514547122906 2.88105651462e-05 0)
(0.000496459964256 2.37824562457e-05 0)
(0.000481463974988 1.948808661e-05 0)
(0.000469172218079 1.57758567576e-05 0)
(0.000459268193899 1.25275367415e-05 0)
(0.000451493632898 9.64961855885e-06 0)
(0.000445638600095 7.06711280639e-06 0)
(0.000441533535393 4.71904777308e-06 0)
(0.000439042869092 2.5551663828e-06 0)
(0.000438059899653 5.33476020535e-07 0)
(0.000438502674173 -1.38158638804e-06 0)
(0.000440310658339 -3.22053188376e-06 0)
(0.000443442025939 -5.00986555167e-06 0)
(0.000447871431797 -6.7728808537e-06 0)
(0.00045358815143 -8.53024772695e-06 0)
(0.000460594487895 -1.03004336578e-05 0)
(0.000468904358772 -1.2099982185e-05 0)
(0.000478541983126 -1.39436623738e-05 0)
(0.000489540591268 -1.58444948575e-05 0)
(0.000501941080267 -1.78136538886e-05 0)
(0.000515790536029 -1.98602405479e-05 0)
(0.000531140539507 -2.19909197002e-05 0)
(0.000548045171545 -2.42094132892e-05 0)
(0.000566558629618 -2.65158457497e-05 0)
(0.000586732372932 -2.89059451948e-05 0)
(0.000608611722816 -3.13701177914e-05 0)
(0.000632231867026 -3.38924340063e-05 0)
(0.000657613253564 -3.64495947335e-05 0)
(0.000684756415839 -3.90099822163e-05 0)
(0.000713636348952 -4.1532941663e-05 0)
(0.000744196655891 -4.39684774125e-05 0)
(0.00077634379615 -4.62575702752e-05 0)
(0.000809941883589 -4.83333137067e-05 0)
(0.000844808571596 -5.01230070305e-05 0)
(0.000880712599482 -5.15512186411e-05 0)
(0.000917373518085 -5.25436379948e-05 0)
(0.000954463933976 -5.30312940632e-05 0)
(0.000991614302056 -5.29544920508e-05 0)
(0.00102841989332 -5.22657216571e-05 0)
(0.00106444917581 -5.09309602772e-05 0)
(0.00109925264828 -4.89293097671e-05 0)
(0.00113237132672 -4.62516190298e-05 0)
(0.00116334460959 -4.28992245233e-05 0)
(0.00119171786857 -3.88837780294e-05 0)
(0.00121705046214 -3.42285224484e-05 0)
(0.00123892491198 -2.89710988081e-05 0)
(0.00125695804665 -2.31681151732e-05 0)
(0.00127081493413 -1.69009175913e-05 0)
(0.00128022552887 -1.02796877802e-05 0)
(0.00128500185622 -3.44181484852e-06 0)
(0.00128505182966 3.45696396342e-06 0)
(0.00128038615253 1.02562549713e-05 0)
(0.00127111668451 1.68057283309e-05 0)
(0.00125744662326 2.29776872764e-05 0)
(0.00123965460759 2.86743308696e-05 0)
(0.00121807638384 3.38278857757e-05 0)
(0.00119308783919 3.83952039989e-05 0)
(0.00116509150438 4.23507695089e-05 0)
(0.00113450655259 4.56810192956e-05 0)
(0.00110176136468 4.83806679154e-05 0)
(0.00106728767444 5.04509110553e-05 0)
(0.00103151531816 5.18995142434e-05 0)
(0.000994866610826 5.2742488609e-05 0)
(0.000957749714396 5.30063444419e-05 0)
(0.000920551047478 5.2729619309e-05 0)
(0.00088362743428 5.19627907076e-05 0)
(0.000847298984076 5.07664219472e-05 0)
(0.000811843594821 4.9207984587e-05 0)
(0.000777493638435 4.73580591045e-05 0)
(0.00074443498961 4.5286588181e-05 0)
(0.000712808224356 4.30596764632e-05 0)
(0.000682711590636 4.07372082059e-05 0)
(0.000654205246701 3.83713566678e-05 0)
(0.000627316253019 3.60059159622e-05 0)
(0.000602043860513 3.36763031274e-05 0)
(0.00057836473062 3.1410046863e-05 0)
(0.000556237826127 2.92275850737e-05 0)
(0.000535608808831 2.71432204497e-05 0)
(0.000516413860998 2.51661190975e-05 0)
(0.000498582909213 2.33012729188e-05 0)
(0.000482042271834 2.1550377162e-05 0)
(0.000466716777858 1.99125984559e-05 0)
(0.000452531418939 1.83852255931e-05 0)
(0.000439412601212 1.69642064303e-05 0)
(0.000427289062395 1.56445806884e-05 0)
(0.000416092514805 1.44208216341e-05 0)
(0.000405758068122 1.32871005176e-05 0)
(0.000396224478235 1.22374872873e-05 0)
(0.000387434260992 1.12660998954e-05 0)
(0.000379333702651 1.0367213093e-05 0)
(0.000371872792519 9.53533602327e-06 0)
(0.0003650050977 8.76526654828e-06 0)
(0.000358687595069 8.05212894108e-06 0)
(0.000352880471465 7.39140062136e-06 0)
(0.000347546899535 6.77893278702e-06 0)
(0.000342652793562 6.21096934022e-06 0)
(0.000338166546863 5.68416819335e-06 0)
(0.000334058749829 5.19562910115e-06 0)
(0.000330301885375 4.74293239126e-06 0)
(0.000326869996377 4.32419358404e-06 0)
(0.000323738317753 3.9381397136e-06 0)
(0.000320882864384 3.58421436784e-06 0)
(0.000318279965671 3.26271977635e-06 0)
(0.000315905739422 2.9750055522e-06 0)
(0.000313735504406 2.72371388869e-06 0)
(0.000311743147127 2.51308797809e-06 0)
(0.000309900493543 2.34933810341e-06 0)
(0.000308176808464 2.24102319391e-06 0)
(0.000306538687584 2.1993045187e-06 0)
(0.000304950879016 2.2376537201e-06 0)
(0.000303379055722 2.36983511141e-06 0)
(0.000301796339245 2.60276847505e-06 0)
(0.000300195047122 2.91361602894e-06 0)
(0.000298595541637 3.1823546516e-06 0)
(0.00122194718178 0.000221321927735 0)
(0.00125350509488 0.000382585480355 0)
(0.00125139795265 0.000395754279895 0)
(0.00121407081563 0.000355572998473 0)
(0.00115654618277 0.000303432800397 0)
(0.00109122028973 0.000253850909961 0)
(0.00102555640367 0.00021098505251 0)
(0.000963504714501 0.000175248096836 0)
(0.000906881246584 0.000145839407557 0)
(0.000856299075927 0.000121690369807 0)
(0.000811733381384 0.000101794467247 0)
(0.000772847567539 8.53011199253e-05 0)
(0.000739174928258 7.15227400066e-05 0)
(0.000710216226464 5.99136985191e-05 0)
(0.000685489527023 5.00435796141e-05 0)
(0.000664553495809 4.15725644935e-05 0)
(0.000647016317379 3.42310859915e-05 0)
(0.00063253709318 2.78037860599e-05 0)
(0.00062082353994 2.21171406576e-05 0)
(0.000611628076713 1.70300034804e-05 0)
(0.000604743412524 1.24263988821e-05 0)
(0.000599998200777 8.21002212746e-06 0)
(0.000597253025115 4.30002851332e-06 0)
(0.000596396817553 6.2779650123e-07 0)
(0.000597343722657 -2.86556928343e-06 0)
(0.000600030374273 -6.23115548355e-06 0)
(0.000604413536892 -9.51373038278e-06 0)
(0.000610468053865 -1.27528841916e-05 0)
(0.000618185033455 -1.59838757786e-05 0)
(0.000627570206004 -1.92382333848e-05 0)
(0.000638642384683 -2.25441372394e-05 0)
(0.000651431960062 -2.59265986834e-05 0)
(0.000665979355554 -2.94074402672e-05 0)
(0.000682333366676 -3.30050732885e-05 0)
(0.000700549302126 -3.67340639078e-05 0)
(0.000720686839832 -4.06044763064e-05 0)
(0.000742807507395 -4.46209827874e-05 0)
(0.000766971695543 -4.87817373154e-05 0)
(0.000793235117747 -5.30770230786e-05 0)
(0.000821644642142 -5.74877080954e-05 0)
(0.00085223344732 -6.19835780078e-05 0)
(0.000885015495717 -6.6521662773e-05 0)
(0.000919979381522 -7.10447328608e-05 0)
(0.000957081697055 -7.54802051912e-05 0)
(0.000996240172214 -7.97397579265e-05 0)
(0.00103732696963 -8.37199873014e-05 0)
(0.00108016264906 -8.73044227899e-05 0)
(0.00112451142313 -9.0367119922e-05 0)
(0.00117007837665 -9.27778487817e-05 0)
(0.00121650927174 -9.44085856957e-05 0)
(0.00126339337024 -9.51406279241e-05 0)
(0.00131026935337 -9.48712799111e-05 0)
(0.00135663393338 -9.35188791171e-05 0)
(0.00140195224596 -9.10251758616e-05 0)
(0.00144566881144 -8.73549147369e-05 0)
(0.00148721801559 -8.24936852519e-05 0)
(0.00152603375076 -7.64459731166e-05 0)
(0.00156155869181 -6.92350375038e-05 0)
(0.00159325405199 -6.0905040009e-05 0)
(0.00162061051884 -5.15253412277e-05 0)
(0.00164316116749 -4.11975245395e-05 0)
(0.00166049762523 -3.00647522639e-05 0)
(0.00167228997349 -1.83187297678e-05 0)
(0.00167830783605 -6.19693459228e-06 0)
(0.00167843741022 6.0325245417e-06 0)
(0.00167268987034 1.80938604045e-05 0)
(0.00166119939879 2.9727974063e-05 0)
(0.00164421133894 4.07134402405e-05 0)
(0.00162206285216 5.08789283304e-05 0)
(0.0015951606614 6.01035259471e-05 0)
(0.00156396089368 6.8307679323e-05 0)
(0.0015289534707 7.54418395978e-05 0)
(0.00149065053866 8.14776090508e-05 0)
(0.00144957755069 8.64020216147e-05 0)
(0.0014062659978 9.02145619783e-05 0)
(0.00136124682636 9.29271481973e-05 0)
(0.00131504337584 9.45667664588e-05 0)
(0.00126816301895 9.51790713802e-05 0)
(0.00122108759616 9.48307314758e-05 0)
(0.00117426357997 9.36090554738e-05 0)
(0.00112809322866 9.16187046299e-05 0)
(0.00108292780203 8.8976262475e-05 0)
(0.0010390634616 8.58038220142e-05 0)
(0.000996739996241 8.22226834708e-05 0)
(0.000956142130132 7.83479574617e-05 0)
(0.000917402926265 7.42845116161e-05 0)
(0.000880608689941 7.01243832729e-05 0)
(0.000845804775508 6.59455512264e-05 0)
(0.000813001769816 6.18118248597e-05 0)
(0.00078218163341 5.77735562961e-05 0)
(0.00075330349772 5.38688877313e-05 0)
(0.000726308925344 5.01252873285e-05 0)
(0.000701126531132 4.65611829264e-05 0)
(0.000677675930888 4.31875593375e-05 0)
(0.000655871033103 4.00094343376e-05 0)
(0.000635622720144 3.70271674036e-05 0)
(0.00061684098262 3.42375834578e-05 0)
(0.000599436577901 3.16349128586e-05 0)
(0.000583322284135 2.92115603254e-05 0)
(0.000568413817198 2.69587216718e-05 0)
(0.000554630471553 2.48668695176e-05 0)
(0.000541895538503 2.29261292705e-05 0)
(0.000530136547495 2.11265652137e-05 0)
(0.000519285368618 1.94583946155e-05 0)
(0.000509278207531 1.79121454026e-05 0)
(0.000500055517829 1.64787708579e-05 0)
(0.000491561850414 1.51497327033e-05 0)
(0.000483745654731 1.39170623712e-05 0)
(0.000476559042622 1.27734088242e-05 0)
(0.000469957522075 1.17120804117e-05 0)
(0.000463899705142 1.07270875086e-05 0)
(0.000458346991757 9.8131924663e-06 0)
(0.000453263229093 8.9659732742e-06 0)
(0.000448614344576 8.18190760821e-06 0)
(0.000444367949849 7.45848412025e-06 0)
(0.0004404929134 6.7943480044e-06 0)
(0.000436958901956 6.18948716409e-06 0)
(0.000433735896467 5.64546294215e-06 0)
(0.000430793700025 5.16568274062e-06 0)
(0.000428101476091 4.75569648519e-06 0)
(0.00042562739219 4.42346426097e-06 0)
(0.000423338505761 4.17946650259e-06 0)
(0.000421201126328 4.03636009133e-06 0)
(0.000419182026658 4.0075054779e-06 0)
(0.00041725101735 4.10281553291e-06 0)
(0.000415385234999 4.31828686531e-06 0)
(0.000413573584552 4.61104044617e-06 0)
(0.000411810847805 4.84717272625e-06 0)
(0.00121697550518 0.00018239920785 0)
(0.00124929501454 0.000357630675767 0)
(0.00126620226874 0.000405908837673 0)
(0.00125687756545 0.000392070152458 0)
(0.00122708897724 0.000354248743115 0)
(0.00118513705581 0.000310312659903 0)
(0.00113756126432 0.000267762861013 0)
(0.00108872707245 0.000229356053225 0)
(0.00104131374533 0.000195768133222 0)
(0.000996846237013 0.00016681121354 0)
(0.000956103906156 0.000141981543041 0)
(0.000919403066325 0.000120700595988 0)
(0.000886783363318 0.000102415508864 0)
(0.000858127424675 8.6635477619e-05 0)
(0.000833236136278 7.29397012282e-05 0)
(0.000811875091766 6.0973437328e-05 0)
(0.0007938025977 5.04398107258e-05 0)
(0.000778786018974 4.10907961879e-05 0)
(0.000766610838587 3.27188034755e-05 0)
(0.000757085225888 2.51493638057e-05 0)
(0.00075004188472 1.82349995352e-05 0)
(0.000745338296138 1.18501863177e-05 0)
(0.000742856050571 5.8872594272e-06 0)
(0.000742499696654 2.53110735755e-07 0)
(0.000744195361421 -5.13345953167e-06 0)
(0.000747889286435 -1.03438374766e-05 0)
(0.000753546365431 -1.54412748059e-05 0)
(0.000761148716508 -2.04821815929e-05 0)
(0.000770694284344 -2.5517088423e-05 0)
(0.000782195455453 -3.05913158153e-05 0)
(0.00079567765273 -3.57453710296e-05 0)
(0.000811177863215 -4.10150800169e-05 0)
(0.000828743042434 -4.64314521497e-05 0)
(0.000848428329165 -5.20202673624e-05 0)
(0.000870294995847 -5.78013701267e-05 0)
(0.000894408052305 -6.37876530277e-05 0)
(0.000920833414947 -6.99837163208e-05 0)
(0.000949634551601 -7.63842006676e-05 0)
(0.000980868515881 -8.2971811181e-05 0)
(0.00101458129748 -8.97150847962e-05 0)
(0.00105080244009 -9.65660028024e-05 0)
(0.00108953892139 -0.000103457617399 0)
(0.00113076835418 -0.000110301943828 0)
(0.00117443165944 -0.000116988460554 0)
(0.0012204254798 -0.000123383643477 0)
(0.00126859474401 -0.00012933200991 0)
(0.00131872594313 -0.000134659127586 0)
(0.00137054181331 -0.0001391769115 0)
(0.00142369819792 -0.000142691251382 0)
(0.00147778383341 -0.000145011573948 0)
(0.00153232361534 -0.000145961384424 0)
(0.00158678551173 -0.000145388270809 0)
(0.0016405907051 -0.00014317153219 0)
(0.00169312587045 -0.000139225873157 0)
(0.00174375602308 -0.000133500809124 0)
(0.00179183651147 -0.00012597735789 0)
(0.00183672367728 -0.000116665077382 0)
(0.00187778491797 -0.00010560199383 0)
(0.0019144092914 -9.28577016505e-05 0)
(0.00194601924076 -7.85389892981e-05 0)
(0.00197208409381 -6.2799285332e-05 0)
(0.0019921374284 -4.58527095603e-05 0)
(0.002005800069 -2.79857103119e-05 0)
(0.00201280577955 -9.55350296741e-06 0)
(0.00201302218417 9.04310975481e-06 0)
(0.00200646082749 2.73921391686e-05 0)
(0.00199327477969 4.51061561841e-05 0)
(0.0019737445226 6.18534944002e-05 0)
(0.00194825457943 7.73772056467e-05 0)
(0.00191726680077 9.1495106133e-05 0)
(0.00188129728658 0.000104085259551 0)
(0.001840899738 0.000115069102824 0)
(0.00179665351259 0.000124399370638 0)
(0.00174915418193 0.000132052442577 0)
(0.00169900570957 0.000138024027074 0)
(0.00164681339745 0.000142329024246 0)
(0.00159317610395 0.000145005488375 0)
(0.00153867659083 0.000146120069249 0)
(0.00148387016238 0.000145771429924 0)
(0.0014292729056 0.000144089469927 0)
(0.00137535117492 0.000141230206743 0)
(0.00132251361619 0.000137367575063 0)
(0.00127110640298 0.00013268388759 0)
(0.00122141176841 0.000127360538288 0)
(0.001173649484 0.00012157007047 0)
(0.00112798068619 0.000115470215505 0)
(0.00108451335511 0.000109200061062 0)
(0.00104330877143 0.000102878186058 0)
(0.00100438837044 9.66024126087e-05 0)
(0.000967740540057 9.04507537639e-05 0)
(0.000933327041352 8.44831467332e-05 0)
(0.000901088848658 7.87436201649e-05 0)
(0.000870951302719 7.32626226878e-05 0)
(0.000842828542347 6.80593192217e-05 0)
(0.000816627230234 6.31437307688e-05 0)
(0.000792249620431 5.85186482376e-05 0)
(0.000769596032801 5.41812909374e-05 0)
(0.000748566807515 5.01247076444e-05 0)
(0.000729063813412 4.63389350709e-05 0)
(0.000710991580514 4.28119379913e-05 0)
(0.000694258120846 3.95303593375e-05 0)
(0.000678775494372 3.64801092991e-05 0)
(0.000664460169134 3.36468210372e-05 0)
(0.000651233217179 3.10161981936e-05 0)
(0.000639020380789 2.85742764253e-05 0)
(0.000627752037238 2.63076182916e-05 0)
(0.000617363084608 2.42034580618e-05 0)
(0.000607792766352 2.22498106728e-05 0)
(0.000598984448021 2.04355570628e-05 0)
(0.000590885356025 1.87505165927e-05 0)
(0.000583446285265 1.71855160695e-05 0)
(0.000576621280096 1.57324640944e-05 0)
(0.000570367291219 1.43844388375e-05 0)
(0.000564643810047 1.31357968564e-05 0)
(0.000559412481896 1.1982309833e-05 0)
(0.000554636700486 1.09213347138e-05 0)
(0.000550281189291 9.95201968924e-06 0)
(0.000546311581226 9.07554218542e-06 0)
(0.000542694018292 8.29536232667e-06 0)
(0.000539394809169 7.61745030573e-06 0)
(0.000536380207404 7.05039704857e-06 0)
(0.000533616407412 6.60522142178e-06 0)
(0.000531069896715 6.2944967412e-06 0)
(0.00052870832904 6.13003762664e-06 0)
(0.000526502002306 6.11762077716e-06 0)
(0.000524425507035 6.2457603532e-06 0)
(0.000522457109197 6.46361602427e-06 0)
(0.000520568885178 6.64555838376e-06 0)
(0.00121291206027 0.000152511606565 0)
(0.00124203138281 0.000326079335482 0)
(0.00126654937659 0.000396034786016 0)
(0.00127350763001 0.000404310516846 0)
(0.00126314536708 0.000382159097166 0)
(0.00124008732874 0.000347412135471 0)
(0.00120915619008 0.000309170188011 0)
(0.00117417287853 0.000271766104798 0)
(0.0011378637724 0.000237080392898 0)
(0.00110206323005 0.000205766885593 0)
(0.00106794728235 0.000177884033937 0)
(0.00103622883362 0.000153217281724 0)
(0.00100730480954 0.000131442442341 0)
(0.000981362144811 0.000112207044133 0)
(0.000958452262513 9.51692069648e-05 0)
(0.000938542577042 8.00145685399e-05 0)
(0.000921551659113 6.64620043687e-05 0)
(0.00090737295705 5.42638025755e-05 0)
(0.000895890584056 4.32032765764e-05 0)
(0.000886989648071 3.30913728452e-05 0)
(0.000880562853622 2.37630673812e-05 0)
(0.000876514574131 1.50739360707e-05 0)
(0.000874763219716 6.89706785776e-06 0)
(0.000875242464876 -8.79621684098e-07 0)
(0.000877901713218 -8.35566358003e-06 0)
(0.000882706055183 -1.56199141053e-05 0)
(0.000889635894166 -2.27521199844e-05 0)
(0.000898686339715 -2.98241268648e-05 0)
(0.000909866419998 -3.69007750469e-05 0)
(0.000923198140489 -4.4040494567e-05 0)
(0.000938715388807 -5.12956017931e-05 0)
(0.000956462665437 -5.87122906867e-05 0)
(0.000976493603513 -6.63303038455e-05 0)
(0.00099886922666 -7.4182261829e-05 0)
(0.0010236558816 -8.22926253421e-05 0)
(0.00105092277172 -9.06762648884e-05 0)
(0.00108073900975 -9.93366188142e-05 0)
(0.00111317010311 -0.000108263435887 0)
(0.00114827378663 -0.000117430126393 0)
(0.00118609512689 -0.000126790790015 0)
(0.00122666084454 -0.00013627705343 0)
(0.00126997284043 -0.000145794937698 0)
(0.00131600097473 -0.000155222083767 0)
(0.00136467524014 -0.000164405785112 0)
(0.00141587759542 -0.000173162390383 0)
(0.00146943388143 -0.000181278712325 0)
(0.00152510641766 -0.000188516064075 0)
(0.0015825880468 -0.000194617383272 0)
(0.0016414985146 -0.000199317546927 0)
(0.00170138408243 -0.000202356402686 0)
(0.00176172109878 -0.000203493280467 0)
(0.00182192383438 -0.000202520937724 0)
(0.00188135617629 -0.000199276334342 0)
(0.00193934586456 -0.000193645859261 0)
(0.00199519919861 -0.000185564243182 0)
(0.00204821420044 -0.00017500934469 0)
(0.00209769156813 -0.000161997550905 0)
(0.0021429446544 -0.000146583770388 0)
(0.00218331020531 -0.000128865770385 0)
(0.0022181601431 -0.000108990729605 0)
(0.00224691447179 -8.71666541735e-05 0)
(0.00226905870203 -6.36828441366e-05 0)
(0.00228417016757 -3.89296374886e-05 0)
(0.00229194992193 -1.3395018114e-05 0)
(0.00229224881679 1.23693236819e-05 0)
(0.00228507936038 3.77967126803e-05 0)
(0.00227061268602 6.23542584603e-05 0)
(0.0022491617817 8.55864914316e-05 0)
(0.00222115289496 0.000107142966349 0)
(0.00218709296542 0.000126776976583 0)
(0.0021475435247 0.000144322265962 0)
(0.00210310419621 0.000159668896651 0)
(0.00205440159504 0.000172748328415 0)
(0.00200208012974 0.000183524206919 0)
(0.00194679436944 0.000191986421072 0)
(0.00188920242272 0.000198150812353 0)
(0.00182995819519 0.000202065140235 0)
(0.00176970079478 0.000203817243902 0)
(0.00170904137816 0.000203540006003 0)
(0.00164854934386 0.00020141008235 0)
(0.00158874007061 0.00019764048703 0)
(0.00153006577323 0.000192469031132 0)
(0.00147291018007 0.000186145110179 0)
(0.00141758701095 0.000178916984718 0)
(0.00136434175765 0.000171021021258 0)
(0.00131335602147 0.000162673653705 0)
(0.00126475359406 0.000154066233182 0)
(0.0012186075246 0.00014536251708 0)
(0.00117494754395 0.000136698312717 0)
(0.00113376737061 0.000128182707592 0)
(0.00109503157347 0.000119900340891 0)
(0.00105868179406 0.000111914253328 0)
(0.00102464223102 0.000104268957839 0)
(0.000992824361915 9.69934779631e-05 0)
(0.000963130925675 9.01041907497e-05 0)
(0.00093545921882 8.36073819908e-05 0)