/*--------------------------------*- C++ -*----------------------------------*\
  =========                 |
  \\      /  F ield         | OpenFOAM: The Open Source CFD Toolbox
   \\    /   O peration     | Website:  https://openfoam.org
    \\  /    A nd           | Version:  7
     \\/     M anipulation  |
\*---------------------------------------------------------------------------*/
FoamFile
{
    version     2.0;
    format      ascii;
    class       volScalarField;
    location    "360";
    object      Ci;
}
// * * * * * * * * * * * * * * * * * * * * * * * * * * * * * * * * * * * * * //

dimensions      [0 -3 0 0 1 0 0];

internalField   nonuniform List<scalar> 
8192
(
10.0000000379
9.99999995933
9.99999976815
9.99999939965
9.99999885265
9.99999815449
9.99999730528
9.99999634745
9.99999531452
9.99999422985
9.9999931079
9.99999195633
9.99999077775
9.99998957142
9.99998833421
9.99998706162
9.9999857482
9.99998438809
9.99998297517
9.99998150352
9.99997996734
9.99997836151
9.99997668146
9.9999749237
9.99997308554
9.99997116556
9.99996916316
9.99996707889
9.99996491384
9.99996266995
9.99996034937
9.99995795489
9.99995548956
9.99995295742
9.99995036349
9.99994771481
9.99994502091
9.99994229522
9.99993955565
9.99993682635
9.99993413803
9.99993152973
9.99992904819
9.99992674889
9.99992469374
9.9999229504
9.99992158744
9.99992067097
9.99992025724
9.99992038667
9.99992107549
9.9999223103
9.99992404444
9.99992620045
9.99992867845
9.99993136929
9.99993417771
9.9999370191
9.99993982315
9.99994255137
9.99994519886
9.99994779097
9.99995038272
9.99995305438
9.99995590799
9.99995905027
9.99996257188
9.99996652285
9.99997090329
9.99997566496
9.999980725
9.99998597634
9.99999130498
9.99999660613
10.0000017883
10.000006774
10.0000114979
10.0000159045
10.0000199477
10.0000235913
10.0000268094
10.0000295882
10.0000319245
10.000033827
10.000035313
10.0000364087
10.0000371453
10.0000375592
10.0000376876
10.0000375688
10.0000372388
10.0000367321
10.0000360786
10.0000353054
10.000034435
10.0000334864
10.0000324748
10.0000314137
10.0000303159
10.0000291933
10.0000280553
10.0000269101
10.000025764
10.0000246226
10.0000234901
10.0000223706
10.0000212671
10.0000201826
10.0000191192
10.000018079
10.0000170636
10.0000160744
10.0000151124
10.000014179
10.0000132748
10.0000124013
10.0000115597
10.0000107525
10.000009982
10.0000092525
10.000008569
10.0000079394
10.0000073756
10.0000068991
10.0000065532
10.0000064357
10.0000067324
10.0000075239
10.0000000354
9.99999987071
9.9999996992
9.99999947231
9.99999914733
9.99999871348
9.99999816674
9.99999751616
9.99999677763
9.99999596867
9.99999510474
9.99999419785
9.99999325614
9.99999228448
9.99999128497
9.99999025781
9.99998920173
9.99998811462
9.99998699381
9.99998583666
9.99998464067
9.99998340405
9.99998212582
9.99998080633
9.99997944706
9.9999780509
9.99997662191
9.99997516514
9.99997368635
9.99997219142
9.99997068638
9.99996917648
9.99996766698
9.99996616173
9.99996466504
9.99996317981
9.99996171029
9.99996025988
9.99995883428
9.99995743954
9.99995608454
9.99995477991
9.99995353916
9.9999523784
9.99995131598
9.99995037253
9.99994956945
9.99994892855
9.99994846995
9.99994821091
9.9999481634
9.99994833221
9.99994871289
9.99994929057
9.99995004091
9.9999509321
9.9999519302
9.9999530012
9.99995411396
9.99995524201
9.9999563668
9.99995747863
9.99995857927
9.99995968335
9.99996082254
9.99996204335
9.99996340279
9.99996495704
9.9999667519
9.99996881569
9.99997115713
9.99997376417
9.99997660747
9.9999796459
9.99998283242
9.99998611822
9.99998945492
9.99999279568
9.99999609519
9.99999931032
10.0000024002
10.0000053276
10.0000080598
10.0000105704
10.0000128395
10.0000148553
10.0000166129
10.000018115
10.0000193697
10.00002039
10.0000211914
10.0000217919
10.0000222092
10.0000224611
10.0000225641
10.0000225331
10.0000223813
10.0000221204
10.0000217676
10.0000213371
10.0000208405
10.0000202886
10.0000196903
10.0000190539
10.0000183865
10.0000176948
10.0000169846
10.0000162613
10.0000155296
10.000014794
10.000014058
10.0000133251
10.0000125982
10.0000118798
10.0000111722
10.0000104778
10.0000097984
10.0000091364
10.0000084943
10.000007875
10.0000072819
10.0000067195
10.0000061941
10.0000057177
10.0000053144
10.0000050435
10.0000051963
10.0000061428
10.0000000816
9.99999989668
9.99999972111
9.99999953482
9.99999931623
9.99999904905
9.99999872248
9.99999833137
9.99999787428
9.99999735371
9.99999677489
9.99999614463
9.99999546997
9.9999947577
9.99999401362
9.99999324282
9.99999244935
9.99999163676
9.99999080788
9.9999899655
9.99998911207
9.99998825037
9.99998738322
9.99998651402
9.99998564649
9.99998478477
9.9999839336
9.99998309762
9.99998228242
9.99998149226
9.99998073315
9.99998000787
9.99997932247
9.99997867725
9.99997807798
9.99997752217
9.99997701482
9.99997655118
9.99997613479
9.99997575998
9.99997542817
9.99997513428
9.99997487754
9.99997465423
9.9999744623
9.99997429926
9.99997416295
9.99997405184
9.99997396453
9.99997390041
9.99997385903
9.99997383995
9.99997384197
9.99997386202
9.9999738953
9.99997393487
9.99997397405
9.99997400588
9.99997402455
9.99997402315
9.99997399588
9.99997393727
9.99997384481
9.99997371876
9.99997356792
9.99997341
9.99997327218
9.99997318518
9.99997317998
9.99997328501
9.99997352554
9.99997392125
9.99997448581
9.99997522763
9.99997615082
9.99997725618
9.99997854023
9.99997999568
9.99998160985
9.99998336558
9.99998523974
9.99998720533
9.99998923071
9.99999128309
9.99999332844
9.99999533532
9.99999727449
9.99999912202
10.000000858
10.0000024685
10.0000039437
10.0000052788
10.0000064718
10.0000075243
10.0000084392
10.0000092215
10.0000098766
10.0000104107
10.0000108315
10.0000111471
10.000011365
10.000011493
10.0000115383
10.0000115083
10.0000114099
10.0000112503
10.0000110358
10.0000107731
10.000010468
10.0000101265
10.0000097538
10.0000093548
10.0000089339
10.0000084953
10.0000080427
10.0000075794
10.0000071087
10.0000066336
10.000006157
10.0000056822
10.0000052122
10.0000047507
10.0000043014
10.0000038718
10.0000034704
10.0000031172
10.0000030359
10.000003966
10.000000129
9.99999995502
9.99999977624
9.99999960129
9.99999941604
9.99999921399
9.99999898776
9.99999872927
9.99999843605
9.99999810596
9.99999773812
9.99999733324
9.99999689338
9.99999642175
9.99999592229
9.99999539945
9.99999485787
9.99999430236
9.99999373764
9.99999316841
9.99999259936
9.99999203499
9.99999148006
9.99999093886
9.99999041657
9.99998991685
9.99998944575
9.99998900562
9.99998860409
9.99998824068
9.99998792564
9.99998765354
9.9999874385
9.99998726786
9.99998716034
9.99998709496
9.99998709394
9.99998712967
9.99998722403
9.99998734761
9.9999875166
9.99998770564
9.99998792171
9.99998814671
9.99998837946
9.99998860849
9.9999888288
9.99998903334
9.99998921738
9.9999893769
9.99998950925
9.99998961233
9.99998968427
9.99998972198
9.99998972116
9.9999896762
9.99998958213
9.99998943518
9.99998923272
9.99998897156
9.99998864815
9.99998825937
9.99998780258
9.99998727569
9.99998668141
9.99998603032
9.99998533957
9.99998462744
9.99998390989
9.99998320142
9.99998251594
9.99998186633
9.99998126482
9.99998072507
9.99998026343
9.99997989891
9.99997965171
9.99997954159
9.99997958594
9.99997979815
9.99998018593
9.99998075052
9.99998148599
9.99998238007
9.99998341464
9.99998456766
9.99998581407
9.99998712797
9.99998848331
9.99998985565
9.99999122233
9.99999256361
9.99999386235
9.99999510463
9.99999627906
9.99999737719
9.99999839264
9.99999932131
10.0000001609
10.0000009111
10.0000015724
10.0000021468
10.0000026367
10.0000030456
10.0000033774
10.0000036366
10.0000038276
10.0000039553
10.0000040246
10.0000040404
10.0000040072
10.0000039298
10.0000038123
10.0000036588
10.0000034731
10.0000032589
10.0000030194
10.0000027582
10.0000024784
10.0000021835
10.0000018768
10.0000015628
10.0000012433
10.0000009283
10.0000006104
10.0000003246
10.0000000418
10.0000009789
10.0000001715
10.0000000114
9.99999983089
9.99999966006
9.99999948834
9.99999931201
9.99999912715
9.99999893015
9.99999871531
9.99999848235
9.99999823016
9.99999795802
9.99999766595
9.99999735486
9.99999702651
9.99999668349
9.99999632898
9.99999596663
9.99999560056
9.99999523481
9.99999487408
9.99999452217
9.99999418444
9.99999386365
9.99999356651
9.99999329324
9.99999305369
9.99999284273
9.99999267678
9.99999254035
9.99999246208
9.99999240862
9.99999242832
9.99999246141
9.99999258255
9.99999270032
9.99999291594
9.99999311087
9.99999340121
9.99999365958
9.99999399395
9.99999429431
9.9999946379
9.99999495112
9.99999527315
9.99999556735
9.99999584576
9.99999609545
9.99999631797
9.99999651082
9.99999667492
9.99999681113
9.99999692044
9.99999700198
9.99999705269
9.99999706719
9.99999704038
9.99999696855
9.99999684936
9.99999667908
9.99999645309
9.99999616684
9.99999581558
9.99999539242
9.99999489367
9.99999432404
9.99999369521
9.99999301744
9.99999229584
9.99999153315
9.99999073188
9.99998989342
9.99998901914
9.99998811371
9.99998718749
9.99998625688
9.99998534289
9.99998446973
9.99998366298
9.99998294805
9.99998234804
9.99998188244
9.99998156554
9.99998140625
9.9999814075
9.99998156701
9.99998187737
9.99998232729
9.99998290196
9.99998358446
9.99998435618
9.9999851981
9.99998609107
9.99998701684
9.9999879581
9.99998889926
9.99998982628
9.99999072717
9.9999915917
9.99999241173
9.99999318075
9.99999389409
9.99999454845
9.99999514205
9.99999567413
9.99999614507
9.99999655593
9.99999690859
9.99999720529
9.99999744877
9.99999764189
9.99999778779
9.99999788952
9.99999795029
9.99999797315
9.99999796126
9.99999791755
9.99999784529
9.99999774731
9.99999762755
9.99999748804
9.99999733556
9.99999716665
9.99999700295
9.99999680362
9.99999668849
9.99999633261
9.99999736334
10.0000002081
10.0000000609
9.99999987797
9.99999970866
9.99999954361
9.99999937996
9.99999921455
9.99999904479
9.99999886872
9.99999868259
9.99999848727
9.9999982827
9.99999806893
9.99999784643
9.99999761628
9.99999737996
9.99999713974
9.99999689787
9.99999665767
9.99999642146
9.99999619377
9.99999597574
9.99999577412
9.99999558662
9.99999542497
9.9999952788
9.99999517108
9.99999507417
9.99999503449
9.99999499039
9.99999503268
9.99999503937
9.99999517564
9.99999522576
9.9999954616
9.99999554547
9.99999587261
9.99999598372
9.99999637334
9.99999651201
9.99999691629
9.99999708555
9.99999745311
9.99999764689
9.99999794468
9.9999981413
9.99999836432
9.99999853695
9.99999869839
9.99999883314
9.99999895052
9.999999052
9.99999914103
9.99999921825
9.99999928117
9.9999993242
9.99999934185
9.99999933158
9.99999929286
9.99999922361
9.99999911959
9.99999897813
9.99999879568
9.99999856367
9.99999827423
9.99999793089
9.99999754508
9.99999712364
9.99999666325
9.99999615776
9.99999560093
9.99999498415
9.99999429715
9.99999353347
9.99999269384
9.99999178623
9.99999082453
9.99998982686
9.99998881484
9.9999878118
9.99998684168
9.99998592723
9.99998508915
9.99998434516
9.99998370962
9.99998319324
9.99998280289
9.99998254168
9.99998240899
9.99998240084
9.99998251018
9.99998272749
9.99998304116
9.99998343829
9.999983905
9.99998442721
9.99998499092
9.99998558279
9.99998619029
9.99998680216
9.99998740833
9.99998800026
9.9999885707
9.99998911387
9.99998962521
9.99999010145
9.99999054027
9.99999094038
9.9999913012
9.99999162286
9.99999190596
9.9999921516
9.9999923611
9.99999253612
9.9999926784
9.99999279002
9.99999287287
9.99999292962
9.99999296188
9.99999297403
9.99999296522
9.99999294661
9.99999290322
9.99999287992
9.99999278165
9.99999284381
9.99999249457
9.99999360079
10.0000002384
10.0000001028
9.99999991778
9.99999974818
9.9999995862
9.99999942941
9.99999927471
9.99999911949
9.99999896206
9.99999880104
9.99999863454
9.99999846389
9.99999828983
9.99999811302
9.99999793463
9.99999775568
9.99999757829
9.99999740342
9.99999723454
9.99999707138
9.99999691999
9.9999967762
9.99999665224
9.99999653408
9.99999644849
9.99999635897
9.99999632508
9.99999626152
9.99999629676
9.99999624778
9.99999637569
9.99999631878
9.99999656848
9.99999647138
9.9999968705
9.99999670089
9.99999725848
9.99999700419
9.99999768678
9.99999737794
9.99999809595
9.99999780706
9.99999843735
9.9999982496
9.99999869794
9.99999864089
9.99999889739
9.99999893027
9.99999905733
9.99999911714
9.99999918704
9.99999924409
9.99999930047
9.99999935586
9.99999940768
9.99999944839
9.999999471
9.9999994732
9.99999945757
9.99999942351
9.99999936794
9.99999929141
9.99999919576
9.99999907203
9.99999891035
9.99999871724
9.99999851177
9.9999983027
9.9999980815
9.99999783621
9.99999755637
9.99999722664
9.99999682789
9.99999634499
9.99999577185
9.99999511057
9.99999436859
9.99999355696
9.99999268977
9.99999178301
9.99999085392
9.99998991968
9.99998899748
9.99998810321
9.99998725241
9.9999864595
9.99998573703
9.99998509548
9.99998454292
9.99998408482
9.99998372392
9.99998346032
9.99998329154
9.99998321287
9.99998321769
9.99998329789
9.99998344431
9.99998364718
9.99998389653
9.99998418251
9.99998449573
9.99998482747
9.99998516981
9.99998551579
9.9999858594
9.9999861956
9.99998652026
9.99998683014
9.99998712276
9.99998739635
9.9999876497
9.99998788216
9.99998809346
9.99998828376
9.99998845335
9.99998860316
9.99998873363
9.99998884689
9.99998894245
9.99998902582
9.99998909102
9.9999891565
9.99998919021
9.99998926712
9.99998923297
9.99998942484
9.99998911366
9.99999022646
10.0000002606
10.0000001348
9.99999994926
9.99999977947
9.99999961902
9.99999946621
9.99999931801
9.99999917156
9.99999902501
9.99999887739
9.99999872741
9.99999857511
9.99999842213
9.99999826935
9.99999811838
9.99999796973
9.99999782608
9.99999768666
9.99999755656
9.9999974312
9.99999732165
9.99999721354
9.99999713277
9.9999970415
9.99999700086
9.99999691927
9.99999693735
9.99999684647
9.99999695515
9.99999681674
9.99999706898
9.99999681794
9.99999729261
9.99999683535
9.99999763022
9.99999686087
9.9999980607
9.99999690748
9.99999852068
9.99999701956
9.9999989042
9.999997258
9.99999910337
9.99999764512
9.99999908673
9.99999810431
9.99999894529
9.99999848479
9.99999881914
9.9999986915
9.99999877484
9.99999876963
9.99999879682
9.99999882487
9.99999885746
9.99999888327
9.99999889185
9.9999988804
9.9999988558
9.99999881804
9.9999987628
9.99999869349
9.99999862031
9.99999853141
9.99999841104
9.99999827165
9.9999981478
9.99999805507
9.99999797836
9.99999790245
9.99999781736
9.99999770445
9.99999753708
9.99999729405
9.99999696643
9.99999655428
9.99999606262
9.9999954985
9.99999487121
9.99999419063
9.99999346728
9.99999271098
9.99999193179
9.99999113956
9.99999034486
9.99998955866
9.99998879246
9.99998805719
9.99998736348
9.99998672093
9.99998613732
9.99998561847
9.99998516812
9.99998478796
9.99998447767
9.99998423521
9.99998405697
9.99998393818
9.99998387316
9.99998385573
9.99998387942
9.99998393782
9.99998402467
9.99998413418
9.99998426098
9.99998440031
9.99998454799
9.99998470045
9.99998485465
9.99998500816
9.99998515895
9.99998530552
9.99998544659
9.99998558149
9.99998570937
9.9999858305
9.99998594381
9.99998605146
9.99998615023
9.99998624786
9.99998633171
9.99998642933
9.99998649013
9.99998661744
9.99998661005
9.99998686747
9.99998659943
9.99998764386
10.0000002761
10.000000155
9.9999999701
9.99999980029
9.99999964079
9.99999949061
9.99999934687
9.99999920651
9.99999906727
9.99999892803
9.99999878844
9.99999864712
9.99999850645
9.99999836721
9.99999823176
9.99999809961
9.9999979749
9.99999785401
9.99999774572
9.99999763837
9.99999755279
9.99999745764
9.99999740361
9.99999731257
9.999997306
9.99999719858
9.99999727114
9.99999710386
9.99999731695
9.99999700674
9.99999747106
9.99999687436
9.99999776972
9.99999666641
9.9999982469
9.9999963502
9.99999890777
9.99999593232
9.99999968574
9.99999550202
10.0000004004
9.99999525492
10.0000007692
9.99999542917
10.0000005485
9.9999961067
9.99999978466
9.99999702683
9.99999889068
9.99999772992
9.99999830213
9.99999801434
9.99999809608
9.99999807873
9.99999810027
9.99999811816
9.99999811861
9.99999809618
9.99999806399
9.99999802132
9.99999796103
9.99999788325
9.99999780863
9.99999770745
9.99999755124
9.99999736457
9.99999722185
9.99999715609
9.99999714285
9.9999971599
9.99999719784
9.99999723135
9.99999722225
9.99999714296
9.9999969853
9.99999675297
9.99999645327
9.9999960937
9.99999568185
9.99999522453
9.9999947273
9.99999419411
9.99999362813
9.99999303263
9.99999241193
9.99999177167
9.99999111907
9.99999046227
9.9999898103
9.9999891722
9.99998855685
9.99998797181
9.9999874238
9.99998691799
9.99998645794
9.99998604564
9.99998568162
9.99998536515
9.99998509444
9.99998486691
9.99998467936
9.99998452826
9.99998440992
9.99998432059
9.99998425671
9.99998421488
9.99998419199
9.99998418524
9.99998419216
9.99998421059
9.99998423863
9.99998427478
9.99998431753
9.99998436607
9.99998441893
9.99998447634
9.999984536
9.99998460073
9.99998466451
9.999984738
9.99998480186
9.99998489238
9.99998494358
9.99998507862
9.99998507022
9.99998533761
9.9999851061
9.99998602874
10.000000284
10.000000165
9.99999998233
9.99999981277
9.99999965347
9.99999950466
9.99999936376
9.99999922758
9.99999909351
9.99999896005
9.99999882706
9.99999869296
9.9999985601
9.99999842895
9.99999830287
9.99999817998
9.99999806655
9.99999795516
9.99999785988
9.99999775988
9.99999768916
9.9999975947
9.99999755947
9.9999974542
9.99999747785
9.99999732566
9.99999745874
9.9999971849
9.99999753084
9.99999699057
9.99999774469
9.9999966783
9.9999981762
9.99999616064
9.99999891791
9.99999534272
10.0000000474
9.99999416435
10.0000015641
9.99999267739
10.0000032876
9.99999115612
10.0000047398
9.99999018815
10.0000051576
9.99999050999
10.0000039204
9.99999235047
10.0000013494
9.99999480943
9.99999883098
9.99999650895
9.99999750392
9.99999710962
9.99999721924
9.99999723967
9.999997248
9.99999722491
9.99999720475
9.99999720416
9.9999971926
9.999997097
9.99999689127
9.99999647323
9.99999583605
9.99999513652
9.9999946347
9.99999445416
9.99999453534
9.99999479809
9.9999951725
9.99999556564
9.99999588621
9.9999960847
9.99999615751
9.99999612296
9.99999600352
9.99999581809
9.99999558299
9.99999530983
9.99999500568
9.99999467234
9.99999430884
9.99999391293
9.99999348378
9.99999302245
9.99999253269
9.99999201995
9.99999149115
9.99999095354
9.99999041461
9.99998988133
9.99998936035
9.99998885706
9.99998837581
9.99998792051
9.99998749394
9.99998709791
9.99998673325
9.99998639999
9.9999860975
9.99998582464
9.99998557993
9.99998536173
9.9999851683
9.99998499793
9.99998484898
9.99998471995
9.99998460939
9.99998451608
9.99998443876
9.99998437653
9.99998432812
9.99998429313
9.99998426982
9.99998425895
9.99998425716
9.99998426843
9.99998428423
9.99998431816
9.99998434544
9.99998440881
9.99998443281
9.99998454938
9.99998452616
9.99998476776
9.99998456492
9.99998534113
10.0000002845
10.0000001645
9.99999998254
9.99999981306
9.99999965391
9.99999950598
9.99999936707
9.99999923393
9.99999910372
9.99999897449
9.99999884605
9.9999987167
9.99999858891
9.99999846264
9.99999834222
9.99999822442
9.99999811749
9.99999801077
9.99999792266
9.99999782508
9.99999776216
9.99999766441
9.99999763905
9.9999975185
9.99999756016
9.9999973677
9.99999754385
9.99999717599
9.99999763166
9.99999687998
9.99999790303
9.99999637454
9.99999848788
9.99999550403
9.99999956436
9.99999407478
10.0000013267
9.99999190032
10.0000039201
9.99998887014
10.0000073456
9.9999850697
10.0000112798
9.99998106831
10.0000146836
9.99997837238
10.0000155235
9.99997920693
10.0000119282
9.99998434842
10.0000049759
9.99999090878
9.999998954
9.99999495673
9.99999652245
9.99999622687
9.99999628316
9.99999628887
9.99999642845
9.99999674407
9.99999671698
9.99999547135
9.99999246019
9.99998761125
9.99998184961
9.99997672733
9.9999737427
9.99997343481
9.99997532344
9.99997858962
9.9999823901
9.99998600693
9.99998899271
9.99999120109
9.99999269825
9.99999363903
9.99999418152
9.99999445345
9.99999454876
9.99999453318
9.99999445101
9.99999433028
9.99999418557
9.99999401999
9.99999382804
9.99999359986
9.9999933263
9.99999300264
9.99999263059
9.99999221753
9.99999177483
9.99999131493
9.99999084988
9.99999038897
9.99998993973
9.99998950557
9.9999890885
9.99998868983
9.9999883101
9.9999879495
9.99998760811
9.99998728604
9.99998698342
9.99998670043
9.99998643717
9.99998619375
9.9999859701
9.99998576614
9.99998558156
9.9999854161
9.99998526913
9.99998514038
9.9999850288
9.99998493443
9.99998485534
9.99998479284
9.99998474278
9.99998471018
9.99998468476
9.99998468214
9.99998467456
9.99998470742
9.99998470309
9.99998479099
9.99998475179
9.9999849508
9.99998477337
9.99998539962
10.0000002786
10.0000001553
9.99999997422
9.99999980524
9.99999964522
9.99999949674
9.99999935822
9.99999922648
9.99999909851
9.9999989719
9.99999884627
9.99999871958
9.99999859456
9.99999847092
9.99999835312
9.99999823789
9.99999813328
9.99999802902
9.99999794218
9.99999784654
9.9999977822
9.99999768542
9.99999765367
9.99999753284
9.99999756116
9.99999736574
9.99999752339
9.9999971413
9.99999758995
9.99999677849
9.99999786699
9.99999612882
9.99999854787
9.99999494778
9.99999992829
9.99999289907
10.0000023658
9.99998962909
10.0000061653
9.99998487985
10.000011486
9.99997849858
10.0000184439
9.99997030793
10.0000270486
9.99996072599
10.0000357252
9.99995311452
10.0000389712
9.99995451325
10.0000303216
9.99996810497
10.0000128453
9.99998472532
9.99999963138
9.99999369525
9.99999516823
9.9999956054
9.99999705876
9.9999972192
9.99998978761
9.99996816477
9.99993016718
9.99988065592
9.99983110621
9.99979434837
9.99977917495
9.99978670511
9.99981144217
9.99984559321
9.99988169862
9.99991422076
9.99994030238
9.99995942022
9.99997247692
9.99998092122
9.99998617307
9.99998935865
9.99999125552
9.99999233902
9.99999287701
9.99999302765
9.99999291338
9.99999265245
9.9999923571
9.99999211426
9.99999197021
9.99999192716
9.99999195373
9.99999200139
9.99999202167
9.99999197739
9.99999184874
9.99999163208
9.99999133747
9.99999098191
9.99999058665
9.99999016974
9.99998974826
9.99998933541
9.99998894035
9.9999885687
9.99998822323
9.99998790469
9.99998761247
9.99998734526
9.99998710138
9.99998687918
9.99998667704
9.99998649369
9.99998632783
9.99998617883
9.99998604544
9.99998592788
9.99998582423
9.99998573631
9.99998565995
9.99998560091
9.99998554876
9.99998551962
9.99998548632
9.99998549243
9.99998546598
9.99998552328
9.99998547333
9.99998562393
9.99998547315
9.99998595577
10.0000002655
10.0000001365
9.99999995308
9.99999978492
9.99999962434
9.99999947498
9.99999933603
9.99999920458
9.99999907751
9.99999895222
9.99999882768
9.99999870219
9.99999857796
9.99999845539
9.99999833744
9.99999822333
9.999998117
9.99999801471
9.99999792282
9.99999783153
9.99999775475
9.99999766841
9.99999760865
9.99999751325
9.99999748278
9.99999734605
9.9999973874
9.9999971291
9.99999736453
9.99999678257
9.99999752557
9.99999613416
9.99999811493
9.9999948434
9.99999958468
9.99999234377
10.0000025996
9.99998792195
10.0000078066
9.99998109801
10.0000153498
9.9999720549
10.0000247828
9.99996101689
10.0000366146
9.99994605463
10.0000540483
9.99992390002
10.0000775064
9.99990082107
10.000091527
9.999900499
10.0000720215
9.99993596465
10.000029519
9.99997498297
10.0000001047
10.0000003861
10.000001386
9.99996320548
9.99983900245
9.99959834779
9.99925168882
9.99886135146
9.99851854624
9.99830399949
9.99825937784
9.9983738465
9.99859957242
9.99887901198
9.9991605108
9.99940768606
9.99960312794
9.99974509606
9.99984115305
9.9999023791
9.99993957505
9.99996149797
9.99997446842
9.99998260381
9.99998824621
9.99999244694
9.9999954677
9.9999972379
9.99999768896
9.99999692223
9.99999522585
9.99999299897
9.99999064894
9.99998850852
9.99998679337
9.99998559784
9.99998491712
9.9999846802
9.99998478275
9.99998511391
9.99998557212
9.99998607722
9.99998656694
9.99998700237
9.99998736227
9.99998763849
9.99998783197
9.99998794939
9.99998800054
9.99998799653
9.9999879485
9.99998786693
9.99998776117
9.99998763942
9.99998750842
9.99998737405
9.99998724052
9.99998711209
9.99998699047
9.99998687961
9.99998677794
9.99998669161
9.99998661295
9.99998655594
9.99998649867
9.99998647672
9.99998643236
9.99998645741
9.99998640306
9.99998650383
9.99998638383
9.99998673233
10.000000248
10.0000001111
9.99999992728
9.99999975809
9.99999959598
9.99999944424
9.99999930311
9.99999917012
9.99999904209
9.99999891647
9.99999879088
9.99999866513
9.99999853969
9.99999841672
9.99999829607
9.99999818175
9.99999807028
9.99999796927
9.9999978675
9.99999778169
9.99999768479
9.99999761441
9.99999751238
9.9999974588
9.99999733836
9.99999730419
9.99999715432
9.99999713398
9.99999697012
9.99999690556
9.99999685076
9.99999649129
9.99999700692
9.99999554452
9.99999797592
9.99999327291
10.0000008579
9.99998824742
10.0000073127
9.99997877621
10.0000186075
9.99996455998
10.0000333992
9.99994875388
10.0000472352
9.99993494246
10.0000607164
9.99991445867
10.0000920886
9.99986355492
10.0001590283
9.99978896616
10.0002147337
9.99977904552
10.0001648483
9.99986646461
10.000084807
9.99999979062
9.99986308558
9.99928517598
9.99807129934
9.99616937418
9.99378753717
9.99139883495
9.98952950363
9.98856284735
9.98864087002
9.98961512404
9.99117268648
9.9929847229
9.9947666562
9.99631878993
9.99754651147
9.9984425039
9.99905236834
9.99944283343
9.99967935543
9.9998148448
9.99988754939
9.99992367033
9.9999407907
9.99995030682
9.99995885491
9.99996935295
9.99998208359
9.99999583611
10.0000089189
10.0000198655
10.0000277854
10.0000324189
10.0000340129
10.0000331258
10.000030441
10.0000266267
10.0000222522
10.0000177529
10.0000134284
10.0000094603
10.00000594
10.0000028905
10.0000002946
9.99999811173
9.99999629068
9.99999477778
9.99999352233
9.99999247903
9.99999160931
9.99999088096
9.99999026809
9.99998974973
9.9999893097
9.9999889348
9.99998861533
9.99998834288
9.99998811164
9.99998791612
9.99998775232
9.99998761727
9.99998750623
9.99998742084
9.99998735026
9.99998730844
9.99998726463
9.99998726663
9.99998722805
9.99998728597
9.99998721095
9.99998743709
10.0000002246
10.0000000775
9.99999989089
9.99999971959
9.99999955687
9.9999994032
9.99999925939
9.99999912391
9.99999899363
9.9999988659
9.99999873795
9.9999986106
9.99999848244
9.99999835754
9.99999823262
9.99999811621
9.99999799822
9.99999789591
9.99999778379
9.99999769929
9.99999758431
9.99999752212
9.99999738552
9.99999735848
9.99999716604
9.99999720684
9.99999689735
9.99999707699
9.99999654407
9.99999699019
9.99999607388
9.99999695238
9.99999551593
9.99999683792
9.99999516847
9.99999604182
9.99999611786
9.99999274931
10.000001122
9.99998310031
10.000014955
9.99996208735
10.0000412336
9.99992986867
10.0000730212
9.99990189831
10.000087765
9.99990001402
10.0000790858
9.99989654055
10.0001225238
9.99977452624
10.0003341973
9.99951719445
10.0005062601
9.99954359252
10.0005325499
9.99929062815
9.99747668022
9.99245261159
9.98422364025
9.97305252383
9.96051904564
9.94917997236
9.94125728256
9.93807789385
9.93994131085
9.94582176014
9.95414151754
9.96346405044
9.97255325814
9.98050209865
9.98686085683
9.99157252344
9.99483207195
9.99695561758
9.99827440753
9.99906554724
9.99952632088
9.99978197449
9.99990809584
9.99995211116
9.99994699785
9.99991739075
9.9998812822
9.99985035768
9.99983059477
9.99982348434
9.99982758251
9.99983998438
9.99985744986
9.99987710198
9.99989674949
9.99991494506
9.99993089179
9.99994428796
9.99995516519
9.99996375202
9.99997036934
9.99997536428
9.99997906143
9.99998174967
9.99998367089
9.99998501999
9.99998594987
9.99998657719
9.99998699013
9.99998725305
9.99998741409
9.99998750617
9.99998755522
9.99998757592
9.99998758339
9.99998758108
9.99998758047
9.99998757651
9.99998758224
9.99998758389
9.99998760054
9.99998760771
9.99998763456
9.99998764362
9.99998767582
9.99998768262
9.9999877088
9.99998771284
9.99998770839
9.99998777129
10.0000001987
10.0000000401
9.99999985296
9.99999967862
9.99999951215
9.9999993555
9.99999920821
9.99999906881
9.99999893428
9.99999880277
9.99999867126
9.99999854066
9.99999840854
9.99999827979
9.99999814987
9.99999802868
9.9999979046
9.99999779644
9.99999767722
9.99999758518
9.9999974621
9.99999738931
9.99999724351
9.99999720119
9.99999699722
9.99999701946
9.99999668755
9.99999686287
9.99999625581
9.99999679167
9.99999559426
9.99999693903
9.99999451395
9.99999752693
9.9999927767
9.99999871599
9.99999045659
9.9999998497
9.99998931504
9.99999724152
9.99999593533
9.99998047284
10.0000246919
9.99993282102
10.0000896607
9.99985171853
10.0001696995
9.99979242002
10.000174968
9.9998594504
10.0000358744
10.0000025379
10.0000500519
9.99958155739
10.0009027622
9.99922692037
10.0002847503
9.99070332469
9.97702811075
9.94700480861
9.90668831221
9.85716613402
9.80663272521
9.76546399039
9.74006287686
9.73346258166
9.74593486763
9.77249893086
9.80692581297
9.8446280687
9.88150875768
9.91422331947
9.94098293793
9.96136238943
9.97584204298
9.98545425754
9.99145707899
9.99504205986
9.99715031356
9.99841882484
9.99922156078
9.99975121853
10.0000986801
10.0003092558
10.0004132664
10.0004379119
10.0004091036
10.0003497385
10.0002778986
10.0002061747
10.00014209
10.0000891596
10.0000481271
10.0000180774
9.99999728814
9.99998380467
9.99997577678
9.99997162441
9.99997008828
9.99997021948
9.99997133382
9.99997295843
9.99997478367
9.99997661615
9.99997834476
9.99997991125
9.99998129454
9.99998249125
9.99998351512
9.99998437828
9.99998510595
9.99998570758
9.99998621346
9.99998662079
9.99998696787
9.99998723105
9.9999874664
9.99998761704
9.99998777391
9.99998782663
9.99998792819
9.99998788212
9.99998794497
9.99998778457
9.99998782107
9.99998751664
9.99998753696
9.99998707217
10.0000001682
9.99999999651
9.99999980635
9.99999962941
9.99999946
9.99999930001
9.99999914889
9.99999900532
9.99999886636
9.99999873038
9.99999859438
9.99999845908
9.99999832222
9.99999818792
9.99999805282
9.9999979246
9.99999779533
9.99999767768
9.99999755443
9.9999974481
9.99999732474
9.99999722757
9.99999709143
9.99999700341
9.99999683347
9.99999676519
9.99999652338
9.99999651633
9.99999611805
9.99999629567
9.99999552547
9.99999623072
9.99999452016
9.9999966632
9.99999256553
9.99999836495
9.99998858392
10.0000026535
9.99998123784
10.0000102129
9.9999718572
10.000015277
9.99997419666
9.99999189854
10.000029217
9.99988623788
10.000191157
9.99967002523
10.0004234064
9.99948980219
10.0004216585
9.99986410385
9.99951323608
10.0008317555
10.0007306934
9.99720761927
9.98262146044
9.93378000099
9.8622185008
9.73429598824
9.5917297645