/*--------------------------------*- C++ -*----------------------------------*\
  =========                 |
  \\      /  F ield         | OpenFOAM: The Open Source CFD Toolbox
   \\    /   O peration     | Website:  https://openfoam.org
    \\  /    A nd           | Version:  7
     \\/     M anipulation  |
\*---------------------------------------------------------------------------*/
FoamFile
{
    version     2.0;
    format      ascii;
    class       volScalarField;
    location    "360";
    object      p;
}
// * * * * * * * * * * * * * * * * * * * * * * * * * * * * * * * * * * * * * //

dimensions      [0 2 -2 0 0 0 0];

internalField   nonuniform List<scalar> 
8192
(
0.000703593745113
0.000532065748942
0.000446505017411
0.000402467319794
0.00037752529802
0.000362369663794
0.00035257748645
0.000345901699981
0.000341134419777
0.000337591510837
0.000334865987184
0.000332704533221
0.000330942943504
0.000329470911437
0.000328212018899
0.000327111907224
0.000326131019892
0.000325239993786
0.000324416638054
0.000323643895178
0.000322908427376
0.000322199611405
0.000321508805949
0.000320828804124
0.000320153413214
0.000319477121897
0.000318794827798
0.000318101606669
0.000317392507738
0.000316662363604
0.000315905606064
0.000315116080944
0.000314286856419
0.000313410020575
0.000312476465448
0.000311475656517
0.00031039538897
0.000309221535136
0.000307937791567
0.000306525439428
0.000304963138151
0.000303226779421
0.000301289435837
0.000299121444699
0.000296690670547
0.000293962987581
0.000290903012558
0.000287475097764
0.0002836445622
0.000279379099904
0.000274650265054
0.0002694349058
0.000263716417009
0.000257485716412
0.000250741916154
0.000243492739101
0.000235754779626
0.000227553708066
0.000218924479997
0.000209911564149
0.000200569127982
0.000190960964542
0.000181159758663
0.000171245289059
0.000161301482615
0.000151412702959
0.000141659942122
0.000132117587543
0.000122851282522
0.000113917058584
0.000105361499041
9.72224408996e-05
8.95297583244e-05
8.23059649034e-05
7.55665400554e-05
6.93199932065e-05
6.3567773364e-05
5.83042075807e-05
5.35166633621e-05
4.91860634783e-05
4.52877740704e-05
4.17927895379e-05
3.86690813612e-05
3.58829663005e-05
3.34003705976e-05
3.1187904507e-05
2.92137027653e-05
2.74480222924e-05
2.58636147385e-05
2.44359071654e-05
2.31430310329e-05
2.19657396247e-05
2.08872500886e-05
1.98930399947e-05
1.89706217558e-05
1.81093118767e-05
1.73000067535e-05
1.65349723555e-05
1.58076519783e-05
1.51124938242e-05
1.44447986541e-05
1.3800586639e-05
1.31764820068e-05
1.2569613686e-05
1.19775301091e-05
1.13981262841e-05
1.08295814142e-05
1.02703054243e-05
9.71889300055e-06
9.17408387823e-06
8.63472839687e-06
8.0997575251e-06
7.56815692795e-06
7.03894498633e-06
6.51115532431e-06
5.98382521115e-06
5.45599267901e-06
4.92670745808e-06
4.39506489911e-06
3.86027907215e-06
3.32182431769e-06
2.7796992726e-06
2.23491683923e-06
1.69042668213e-06
1.15290976598e-06
6.36461785426e-07
1.7165263442e-07
-8.88236363977e-08
0.000554658070703
0.00049116634933
0.00044152492068
0.000408935952484
0.000387081268863
0.000371964309359
0.000361202802944
0.000353329990619
0.00034741979613
0.000342873632973
0.000339295583421
0.000336417780731
0.000334054977725
0.000332076370262
0.000330387782243
0.000328920175233
0.000327622086166
0.000326454549228
0.000325387617912
0.000324397936748
0.000323467013787
0.000322579968662
0.000321724608262
0.000320890730973
0.000320069592083
0.000319253482662
0.000318435389153
0.000317608711102
0.00031676701814
0.000315903832529
0.000315012427407
0.000314085632931
0.000313115644381
0.000312093827898
0.000311010521168
0.000309854828189
0.000308614409455
0.000307275271611
0.000305821564121
0.000304235394646
0.000302496679879
0.000300583054027
0.000298469862655
0.000296130274046
0.000293535542319
0.000290655454193
0.000287458982626
0.000283915153776
0.000279994108697
0.000275668309896
0.000270913810981
0.000265711484306
0.000260048098156
0.000253917161006
0.000247319505162
0.00024026364738
0.000232766006613
0.000224851055079
0.000216551442647
0.00020790810376
0.000198970318167
0.000189795578449
0.000180448935102
0.00017100145735
0.000161527726468
0.000152102699777
0.000142798509731
0.000133681731548
0.000124811547943
0.000116238972934
0.000108006926701
0.000100150736162
9.26986920392e-05
8.56724756588e-05
7.90873946451e-05
7.29524327496e-05
6.72701908084e-05
6.20368647912e-05
5.72424196907e-05
5.28710607738e-05
4.89020132242e-05
4.53105427621e-05
4.20691070218e-05
3.91485205624e-05
3.65190345157e-05
3.41512621684e-05
3.20169143301e-05
3.0089336472e-05
2.83438604241e-05
2.67579960591e-05
2.53114941775e-05
2.39863122527e-05
2.27665119815e-05
2.16381130224e-05
2.05889223511e-05
1.96083537849e-05
1.8687248089e-05
1.7817700576e-05
1.69929004942e-05
1.62069844544e-05
1.5454904785e-05
1.47323126884e-05
1.40354555076e-05
1.33610870026e-05
1.27063893995e-05
1.20689058775e-05
1.14464822317e-05
1.08372164923e-05
1.02394154519e-05
9.65155716469e-06
9.07225871587e-06
8.50024874615e-06
7.93434454976e-06
7.37343391068e-06
6.81646242387e-06
6.26242779043e-06
5.71038379247e-06
5.15945840897e-06
4.60889338635e-06
4.05811698985e-06
3.50686888566e-06
2.95540781767e-06
2.404852445e-06
1.85773995199e-06
1.31894779619e-06
7.97279044695e-07
3.07571389304e-07
-2.90341158496e-08
0.000471653876488
0.00044901738045
0.000423073384071
0.000401893072564
0.000385831409965
0.000373575100299
0.000364102232235
0.000356683837248
0.00035079725633
0.000346063075175
0.00034220303272
0.000339011250834
0.000336334107562
0.000334055969286
0.000332089002018
0.000330365856173
0.000328834385059
0.000327453806551
0.000326191891974
0.000325022889011
0.000323925971798
0.000322884071801
0.000321882985341
0.000320910683179
0.000319956768755
0.0003190120439
0.000318068154607
0.000317117296856
0.000316151964168
0.000315164724203
0.000314148015254
0.000313093955203
0.000311994157273
0.000310839548494
0.000309620188316
0.000308325086424
0.000306942020762
0.000305457359003
0.000303855889629
0.00030212067219
0.00030023292048
0.000298171936878
0.000295915120943
0.000293438079287
0.000290714866204
0.000287718383279
0.00028442095985
0.000280795122528
0.000276814540589
0.000272455105723
0.000267696073996
0.000262521172733
0.00025691956706
0.000250886601719
0.000244424287499
0.000237541571992
0.000230254481475
0.000222586209692
0.000214567180701
0.000206235096814
0.000197634994913
0.000188819231818
0.000179847056156
0.000170783308218
0.000161696110963
0.000152653934588
0.000143722622239
0.000134962862908
0.000126428534769
0.000118166106498
0.00011021485
0.000102607374387
9.53701196568e-05
8.85236948199e-05
8.20830457857e-05
7.60574529913e-05
7.04504198426e-05
6.5259597076e-05
6.04769058375e-05
5.60889563094e-05
5.20777617309e-05
4.84216724495e-05
4.50964207066e-05
4.20761675872e-05
3.93344651246e-05
3.6845076142e-05
3.45826239575e-05
3.25230682378e-05
3.06440204527e-05
2.89249221477e-05
2.73471133027e-05
2.58938177065e-05
2.45500696143e-05
2.3302601917e-05
2.21397119171e-05
2.10511167728e-05
2.00278073532e-05
1.90619063971e-05
1.81465347917e-05
1.72756881036e-05
1.64441243987e-05
1.56472635178e-05
1.48810975022e-05
1.41421114741e-05
1.34272141522e-05
1.27336770464e-05
1.20590814324e-05
1.1401272193e-05
1.07583177603e-05
1.0128475448e-05
9.5101616674e-06
8.90192663758e-06
8.30243348298e-06
7.71044183206e-06
7.12479646408e-06
6.54442199274e-06
5.96832532478e-06
5.39560853172e-06
4.82549618404e-06
4.25738305376e-06
3.6909109244e-06
3.12608729334e-06
2.56346514398e-06
2.00441221737e-06
1.45150859562e-06
9.09030592679e-07
3.82614037677e-07
-1.24407050515e-08
0.000427026354903
0.000418682459832
0.000404541524708
0.000390801910203
0.000379423469816
0.000370193096975
0.00036265678656
0.00035644565245
0.000351281276987
0.00034695100809
0.000343289085446
0.000340164468044
0.000337472718084
0.000335130199317
0.000333069695024
0.000331236994796
0.000329588199963
0.000328087586734
0.000326705909668
0.000325419053831
0.000324206962288
0.000323052780076
0.000321942167633
0.000320862746316
0.000319803647477
0.000318755137811
0.00031770830645
0.000316654800604
0.000315586594823
0.000314495785051
0.000313374400632
0.000312214228318
0.000311006643642
0.000309742446225
0.000308411696733
0.000307003554517
0.000305506116487
0.00030390625961
0.000302189491831
0.000300339819112
0.000298339639945
0.000296169682952
0.000293809007832
0.000291235094445
0.000288424048187
0.000285350950412
0.000281990378436
0.0002783171084
0.000274306994277
0.000269937987769
0.000265191230111
0.000260052115573
0.000254511210862
0.000248564931462
0.000242215936631
0.000235473295239
0.000228352539274
0.000220875698376
0.000213071324487
0.000204974508889
0.000196626992345
0.000188077390439
0.00017938111611
0.000170599295179
0.000161796430638
0.000153037353588
0.00014438418236
0.00013589376116
0.000127616060557
0.000119593818108
0.000111863070488
0.000104453886331
9.73908908821e-05
9.0693567962e-05
8.43763870684e-05
7.84487355169e-05
7.29147014341e-05
6.77728829199e-05
6.30164251727e-05
5.86333935859e-05
5.46074670977e-05
5.09188541657e-05
4.75453072303e-05
4.44631229479e-05
4.16480446047e-05
3.90760164833e-05
3.67237699943e-05
3.45692442962e-05
3.25918589488e-05
3.0772663574e-05
2.90943914504e-05
2.75414422857e-05
2.60998159418e-05
2.47570146931e-05
2.350192758e-05
2.23247068125e-05
2.12166432704e-05
2.01700458009e-05
1.91781272956e-05
1.82348992175e-05
1.73350753667e-05
1.64739850226e-05
1.56474952157e-05
1.48519416033e-05
1.40840673075e-05
1.33409689866e-05
1.26200494297e-05
1.19189759719e-05
1.12356441122e-05
1.05681457711e-05
9.91474174848e-06
9.2738380345e-06
8.64396578675e-06
8.02376492967e-06
7.41197155785e-06
6.80740955902e-06
6.20898722728e-06
5.61570006339e-06
5.02664161142e-06
4.44102509552e-06
3.85822010963e-06
3.27781091693e-06
2.6996861854e-06
2.1241715102e-06
1.55219454018e-06
9.85309712844e-07
4.24631059039e-07
-9.49675189472e-09
0.000399329534705
0.000397419252584
0.00038967678531
0.000380535505351
0.000372299617714
0.000365305806944
0.000359396699533
0.000354366810812
0.000350047774068
0.000346309955196
0.000343052152495
0.000340193173678
0.000337666419478
0.000335416491554
0.000333396948453
0.000331568690929
0.000329898708934
0.000328359059371
0.000326926010036
0.000325579314866
0.0003243015984
0.000323077832762
0.0003218948931
0.000320741178997
0.000319606292653
0.000318480757066
0.000317355773069
0.000316223008527
0.000315074408053
0.000313902019421
0.000312697832387
0.000311453625848
0.000310160820069
0.000308810331334
0.00030739242723
0.000305896581587
0.000304311329292
0.000302624122586
0.000300821192479
0.000298887421414
0.000296806236728
0.000294559538604
0.000292127681202
0.000289489531006
0.000286622631244
0.000283503503977
0.000280108119651
0.000276412554713
0.000272393838569
0.000268030960658
0.000263305968948
0.000258205050267
0.000252719455618
0.000246846144002
0.000240588090366
0.000233954329912
0.000226959911895
0.000219625893615
0.000211979343385
0.000204053309405
0.00019588697577
0.000187526232973
0.000179024125005
0.000170439998377
0.000161836923715
0.000153278267429
0.000144824384618
0.000136529840314
0.000128441751817
0.000120599746775
0.000113037010209
0.000105781336377
9.88556982021e-05
9.22785171833e-05
8.60637733885e-05
8.02208707284e-05
7.47542719844e-05
6.96631431704e-05
6.49412844748e-05
6.05774758751e-05
5.65561946479e-05
5.28585692318e-05
4.94634189321e-05
4.63482556565e-05
4.34901640609e-05
4.08665159137e-05
3.8455506834e-05
3.62365262284e-05
3.419038429e-05
3.22994249823e-05
3.05475535923e-05
2.89202040011e-05
2.74042661972e-05
2.59879898135e-05
2.46608753016e-05
2.34135608906e-05
2.22377108365e-05
2.1125908453e-05
2.00715560009e-05
1.9068782488e-05
1.81123597645e-05
1.71976268331e-05
1.63204220276e-05
1.54770225322e-05
1.46640906485e-05
1.3878626171e-05
1.31179242561e-05
1.23795381878e-05
1.16612465032e-05
1.09610239864e-05
1.02770161183e-05
9.60751662594e-06
8.95094787088e-06
8.30584389028e-06
7.67083602709e-06
7.04464120811e-06
6.42605313388e-06
5.81393690927e-06
5.20722810053e-06
4.60493788569e-06
4.00616702864e-06
3.41013261333e-06
2.81621139338e-06
2.22399505582e-06
1.63330733712e-06
1.04395478257e-06
4.54511507125e-07
-8.67353700219e-09
0.000380910611595
0.000381878864786
0.000377900989655
0.000371820001508
0.000365769357942
0.000360371528031
0.000355677368264
0.000351592184019
0.000348009536128
0.00034484106427
0.000342017494785
0.000339484074274
0.000337196362576
0.00033511732712
0.000333215487842
0.00033146373084
0.000329838510259
0.000328319268478
0.000326887980925
0.000325528776679
0.000324227610176
0.000322971971377
0.000321750627471
0.000320553391532
0.000319370916977
0.000318194505658
0.000317015936066
0.000315827310313
0.000314620908874
0.00031338905398
0.000312123979123
0.000310817702218
0.000309461900297
0.000308047783864
0.000306565969478
0.000305006349653
0.00030335795992
0.000301608844019
0.000299745919756
0.000297754850332
0.000295619929117
0.000293323990083
0.000290848361546
0.000288172887312
0.000285276045956
0.000282135204266
0.000278727042034
0.000275028178556
0.000271016012491
0.000266669753305
0.000261971575238
0.000256907770328
0.000251469732145
0.000245654599377
0.000239465473259
0.000232911306849
0.000226006735483
0.000218772052737
0.000211233217956
0.000203421717954
0.000195374688504
0.000187135958829
0.00017875733434
0.000170298057151
0.000161821690411
0.000153392010865
0.000145069291793
0.000136907123802
0.000128950536032
0.00012123640129
0.000113795297763
0.000106652999313
9.98310237983e-05
9.33468371212e-05
8.72139841289e-05
8.14418935304e-05
7.60353070387e-05
7.0993694279e-05
6.63110576118e-05
6.19762779349e-05
5.79739086713e-05
5.42852235849e-05
5.08893306375e-05
4.77642131522e-05
4.48876140686e-05
4.22377262069e-05
3.97936869363e-05
3.75358983741e-05
3.54462053214e-05
3.35079654465e-05
3.17060431525e-05
3.00267530138e-05
2.8457772623e-05
2.69880392121e-05
2.56076399659e-05
2.43077025346e-05
2.30802897997e-05
2.19183012122e-05
2.08153818693e-05
1.97658397197e-05
1.87645708197e-05
1.78069922623e-05
1.68889822513e-05
1.60068267072e-05
1.51571717789e-05
1.43369816375e-05
1.35435009684e-05
1.27742216081e-05
1.20268528326e-05
1.12992948378e-05
1.05896150137e-05
9.89602665436e-06
9.21686980082e-06
8.55059396788e-06
7.89574257818e-06
7.25093901619e-06
6.61487436174e-06
5.98629706653e-06
5.3640051593e-06
4.74684196021e-06
4.13369660471e-06
3.52351008595e-06
2.91528329848e-06
2.30806703761e-06
1.70086086523e-06
1.09220965871e-06
4.79070868632e-07
-7.31678905805e-09
0.000367973500962
0.000370183857875
0.000368458206248
0.000364496193158
0.000360051629248
0.000355843286803
0.00035206171236
0.000348702116705
0.000345707727477
0.000343018549291
0.00034058386928
0.000338363083806
0.000336323657528
0.000334438960034
0.000332686623042
0.000331047419886
0.000329504525941
0.000328043025165
0.000326649566263
0.000325312107189
0.000324019711607
0.000322762376671
0.000321530880807
0.000320316645719
0.00031911160944
0.000317908102392
0.000316698731217
0.000315476273721
0.000314233573056
0.000312963434534
0.000311658523467
0.000310311262576
0.000308913727508
0.000307457539093
0.000305933751069
0.00030433273229
0.000302644042889
0.000300856304636
0.000298957066987
0.000296932672307
0.000294768126704
0.000292446987282
0.000289951282557
0.000287261490493
0.000284356607455
0.00028121434981
0.000277811534814
0.000274124683877
0.000270130873638
0.000265808823577
0.000261140152035
0.000256110660483
0.000250711435318
0.000244939528942
0.000238798074578
0.000232295958888
0.000225447482339
0.000218272362098
0.000210795812461
0.000203048190158
0.000195064867328
0.000186887913894
0.000178568790335
0.000170168291494
0.000161752392674
0.000153387066557
0.000145134112707
0.000137047361761
0.000129170271669
0.000121536999028
0.000114175592561
0.000107110048035
0.00010036063522
9.39439654622e-05
8.78732326414e-05
8.21579803602e-05
7.68032313235e-05
7.18085751195e-05
6.7167824189e-05
6.28694024497e-05
5.88972823202e-05
5.52321886739e-05
5.18528347542e-05
4.87370354421e-05
4.58626149745e-05
4.32080818954e-05
4.07530829957e-05
3.8478670536e-05
3.63674255416e-05
3.44034787038e-05
3.25724639801e-05
3.08614318653e-05
2.92587416249e-05
2.77539454659e-05
2.63376728711e-05
2.50015199658e-05
2.3737946529e-05
2.25401818033e-05
2.140213936e-05
2.03183407461e-05
1.92838473536e-05
1.82941998119e-05
1.73453641626e-05
1.64336840796e-05
1.55558384389e-05
1.47088035903e-05
1.38898197424e-05
1.30963609257e-05
1.23261080548e-05
1.15769246536e-05
1.08468348581e-05
1.01340033454e-05
9.43671688136e-06
8.75336721944e-06
8.08243513498e-06
7.42247544476e-06
6.77210295237e-06
6.12997936901e-06
5.49480135827e-06
4.86528979854e-06
4.24017973418e-06
3.61820811364e-06
2.99808921787e-06
2.37844819179e-06
1.75763645581e-06
1.13326644699e-06
5.01242294535e-07
-4.11339877156e-09
0.000358478936224
0.000361165258869
0.000360795363264
0.000358319031135
0.000355090764221
0.000351808393198
0.000348739166354
0.000345946610413
0.00034341724852
0.000341116107674
0.000339007216407
0.000337059560061
0.000335247741975
0.000333551074182
0.000331952445702
0.000330437374958
0.000328993311501
0.000327609147214
0.000326274878426
0.000324981368753
0.000323720176198
0.000322483420084
0.000321263672271
0.000320053864775
0.000318847203569
0.000317637086056
0.000316417021136
0.000315180556491
0.000313921201832
0.000312632351245
0.000311307203449
0.000309938678815
0.000308519331918
0.000307041258371
0.000305495994631
0.00030387440953
0.000302166586493
0.000300361695876
0.00029844785779
0.000296411997421
0.000294239697653
0.000291915058117
0.000289420576386
0.000286737076018
0.000283843717624
0.000280718141455
0.000277336799763
0.000273675538357
0.000269710471235
0.000265419152407
0.000260781981263
0.000255783684354
0.000250414610151
0.000244671500626
0.000238557485545
0.000232081433359
0.00022525735087
0.000218104501173
0.000210647732819
0.000202916738247
0.000194945188502
0.000186773236267
0.000178452700748
0.000170047833791
0.000161629168454
0.000153266691153
0.000145025436347
0.000136960789397
0.00012911491543
0.000121518874863
0.000114198092946
0.000107175084649
0.000100469091943
9.40959124285e-05
8.80684641907e-05
8.2396567211e-05
7.70856099152e-05
7.21351588108e-05
6.75384448241e-05
6.32828646619e-05
5.93511498394e-05
5.57227988712e-05
5.23754841277e-05
4.92862662032e-05
4.64325385334e-05
4.37926892841e-05
4.13465099061e-05
3.90754014923e-05
3.69624348251e-05
3.49923140396e-05
3.31512831381e-05
3.14270034126e-05
2.98084203103e-05
2.82856310821e-05
2.68497595631e-05
2.54928411785e-05
2.42077192784e-05
2.29879527508e-05
2.18277342561e-05
2.07218181331e-05
1.96654569453e-05
1.86543456359e-05
1.76845723359e-05
1.67525749491e-05
1.58551027383e-05
1.49891822209e-05
1.41520867706e-05
1.33413093877e-05
1.25545381695e-05
1.17896340579e-05
1.10446104927e-05
1.03176146323e-05
9.6069098406e-06
8.91085916739e-06
8.22790958344e-06
7.55657675653e-06
6.89543017389e-06
6.24307838312e-06
5.59815396078e-06
4.95929728425e-06
4.32513675036e-06
3.69425949568e-06
3.06515824893e-06
2.43612156225e-06
1.80499999928e-06
1.16873633382e-06
5.22560237194e-07
1.68600816788e-09
0.000351264601698
0.000354069481987
0.000354514397997
0.000353083344405
0.00035078670597
0.000348244127343
0.000345750959165
0.000343416244843
0.000341261887723
0.000339275644584
0.000337435266891
0.000335718114983
0.000334104279384
0.000332577085958
0.000331122698244
0.000329729514974
0.000328387614222
0.000327088311407
0.000325823829538
0.000324587059399
0.000323371385308
0.000322170556076
0.000320978585803
0.000319789677306
0.00031859815101
0.000317398381571
0.000316184738327
0.000314951530435
0.000313692948357
0.00031240300312
0.000311075462079
0.000309703779945
0.000308281023744
0.000306799790295
0.000305252114651
0.000303629367809
0.000301922142026
0.000300120122204
0.000298211942415
0.00029618502792
0.00029402542547
0.000291717629009
0.000289244414879
0.000286586711115
0.000283723539749
0.000280632088149
0.00027728798161
0.000273665837193
0.000269740167378
0.000265486660073
0.000260883782236
0.000255914536632
0.000250568048907
0.000244840513359
0.000238735051734
0.000232260570357
0.000225430718868
0.000218264279342
0.000210786162876
0.000203026060286
0.000195015777196
0.000186792674948
0.000178409436694
0.000169936323026
0.000161451065179
0.000153029538757
0.000144742012381
0.00013664713845
0.000128785792009
0.000121184913392
0.000113867053615
0.000106853750279
0.000100163458253
9.38110444009e-05
8.78091642317e-05
8.21681488873e-05
7.68939109939e-05
7.19858442285e-05
6.74361371186e-05
6.32305053493e-05
5.93497137033e-05
5.57713201056e-05
5.24713028777e-05
4.94254009453e-05
4.66101022624e-05
4.40032875266e-05
4.15845818523e-05
3.93354869089e-05
3.72393653713e-05
3.52813372177e-05
3.34481314098e-05
3.17279217151e-05
3.01101639221e-05
2.8585443676e-05
2.71453390449e-05
2.57822989014e-05
2.44895365706e-05
2.32609374201e-05
2.2090978782e-05
2.09746605808e-05
1.99074451521e-05
1.88852049024e-05
1.79041766323e-05
1.69609215159e-05
1.60522898704e-05
1.51753899847e-05
1.43275603739e-05
1.35063449235e-05
1.27094704536e-05
1.19348262934e-05
1.11804455054e-05
1.04444874314e-05
9.72522126301e-06
9.02101035622e-06
8.33029701401e-06
7.65158744242e-06
6.98343651506e-06
6.32443180596e-06
5.67317593608e-06
5.02826536625e-06
4.38826178927e-06
3.75164813641e-06
3.11675291881e-06
2.48161141426e-06
1.84370936887e-06
1.19953734134e-06
5.43920592728e-07
1.05643146248e-08
0.000345635578488
0.000348395328395
0.000349324958919
0.000348629180425
0.000347047795022
0.000345103131529
0.000343086602902
0.000341132564103
0.000339289136863
0.000337563538568
0.000335946311077
0.000334422857135
0.000332978356775
0.000331599526984
0.000330274995837
0.000328995136626
0.000327751740864
0.000326537685852
0.000325346650718
0.00032417289129
0.000323011067569
0.000321856112827
0.000320703133143
0.000319547333039
0.000318383948266
0.000317208186279
0.000316015177336
0.000314799927211
0.000313557268402
0.000312281809096
0.000310967878374
0.000309609466124
0.000308200156052
0.00030673305007
0.000305200682094
0.000303594919018
0.000301906846393
0.000300126636198
0.000298243394253
0.000296244985652
0.000294117838596
0.000291846731052
0.000289414571955
0.000286802200517
0.000283988244718
0.000280949102886
0.000277659136784
0.000274091181899
0.000270217476141
0.00026601106566
0.000261447655675
0.000256507731911
0.000251178573092
0.000245455508905
0.000239341653211
0.00023284599524
0.000225981550743
0.000218766260381
0.000211225591479
0.000203390409712
0.000195290280868
0.000186957624581
0.000178446201598
0.000169836216851
0.000161216107318
0.000152669407121
0.000144274169749
0.000136094993975
0.000128171073417
0.000120523081589
0.000113170350736
0.00010613445453
9.94332954132e-05
9.30803304976e-05
8.70878211213e-05
8.14669391404e-05
7.62243485404e-05
7.13590477249e-05
6.68615633225e-05
6.27151128063e-05
5.88976408441e-05
5.53839680335e-05
5.2147685292e-05
4.91626380833e-05
4.64039569095e-05
4.38486683905e-05
4.14759700123e-05
3.92672680491e-05
3.72060695438e-05
3.52777984531e-05
3.3469583445e-05
3.17700459744e-05
3.01691037138e-05
2.8657795737e-05
2.72281308161e-05
2.58729575749e-05
2.4585854109e-05
2.33610343607e-05
2.2193268643e-05
2.1077815981e-05
2.00103662769e-05
1.89869906222e-05
1.80040983735e-05
1.70583998445e-05
1.61468736741e-05
1.52667380859e-05
1.44154253899e-05
1.35905591789e-05
1.27899337525e-05
1.20114953685e-05
1.12533249654e-05
1.05136220384e-05
9.79068936655e-06
9.08291829393e-06
8.38877424153e-06
7.7067820595e-06
7.03551067797e-06
6.37355621145e-06
5.71952206829e-06
5.07199344699e-06
4.42950135808e-06
3.79046713867e-06
3.15311107351e-06
2.51529721225e-06
1.87427293678e-06
1.22625895271e-06
5.65883341076e-07
2.28296667296e-08
0.00034115756642
0.000343800617148
0.000345011235833
0.000344831461987
0.000343798341986
0.00034233840921
0.000340720904348
0.000339089859428
0.000337510705237
0.000336006076094
0.000334577818011
0.000333218957881
0.000331919654601
0.000330669891696
0.000329460525159
0.00032828355517
0.000327132064132
0.000326000035376
0.000324882149954
0.000323773601143
0.000322669938963
0.000321566945029
0.000320460533355
0.000319346674913
0.000318221332108
0.000317080397012
0.000315919647239
0.000314734700975
0.000313520972488
0.000312273625946
0.000310987525713
0.000309657181302
0.000308276685077
0.000306839640592
0.000305339079143
0.000303767361649
0.000302116062516
0.0003003758316
0.0002985362301
0.000296585536409
0.000294510519329
0.000292296179535
0.000289925467446
0.000287378998587
0.000284634808376
0.000281668217688
0.000278451915759
0.000274956397577
0.000271150899792
0.000267004938747
0.000262490452518
0.000257584384955
0.000252271296529
0.000246545160807
0.000240409056157
0.000233872081679
0.000226945951319
0.000219646673042
0.000212000757212
0.000204042561521
0.000195798950509
0.000187292794294
0.000178578587056
0.000169753290749
0.000160920994603
0.000152173953462
0.000143601531665
0.000135279116345
0.000127243144026
0.000119503742146
0.000112076789334
0.000104986018505
9.82488569892e-05
9.18760808601e-05
8.58791528809e-05
8.02705693567e-05
7.5058034136e-05
7.02397514871e-05
6.58036878839e-05
6.17294922134e-05
5.79912508876e-05
5.45601334082e-05
5.14065910573e-05
4.85019925414e-05
4.58196826132e-05
4.33355334062e-05
4.10281112207e-05
3.88785920577e-05
3.68705390186e-05
3.49896225787e-05
3.32233341186e-05
3.15607197299e-05
2.99921458951e-05
2.85090996193e-05
2.71040209665e-05
2.5770163989e-05
2.45014815807e-05
2.32925300283e-05
2.21383895926e-05
2.10345980586e-05
1.99770947692e-05
1.89621731461e-05
1.79864401048e-05
1.70467810909e-05
1.61403297161e-05
1.52644411714e-05
1.44166687435e-05
1.35947428837e-05
1.27965523617e-05
1.2020127111e-05
1.12636224172e-05
1.05253041311e-05
9.80353460165e-06
9.09675900572e-06
8.40349170452e-06
7.72230214012e-06
7.05179957153e-06
6.39061554921e-06
5.7373822998e-06
5.09070389394e-06
4.44911478636e-06
3.81101645616e-06
3.17457679777e-06
2.5375687431e-06
1.89711742975e-06
1.24932891054e-06
5.888039926e-07
3.86522567666e-08
0.00033754743965
0.000340045768335
0.000341410063096
0.000341590589926
0.000340976348688
0.000339908897929
0.000338626852271
0.000337273049776
0.000335922590036
0.000334609325474
0.00033334447431
0.000332127957517
0.000330954710708
0.000329817950549
0.000328710731541
0.000327626595935
0.000326559768723
0.000325505140924
0.000324458166815
0.000323414736854
0.000322371054349
0.00032132352668
0.000320268675203
0.000319203061229
0.000318123222101
0.00031702561042
0.000315906550164
0.000314762192901
0.000313588475064
0.000312381074074
0.000311135361273
0.000309846349659
0.000308508634213
0.000307116322384
0.000305662951792
0.000304141391621
0.000302543723361
0.000300861095652
0.000299083547058
0.000297199790091
0.000295196950177
0.000293060255872
0.000290772683272
0.000288314571107
0.000285663246866
0.000282792741143
0.000279673715842
0.000276273780969
0.000272558399335
0.00026849254428
0.000264043162139
0.000259182311934
0.000253890581948
0.000248159781379
0.000241992849831
0.000235399035497
0.000228387420176
0.000220969425616
0.000213172718838
0.000205039838757
0.00019659486195
0.000187841543771
0.000178833537083
0.000169697435319
0.000160560299764
0.000151521845908
0.000142688031752
0.000134154647157
0.000125952918131
0.000118073859738
0.000110530354515
0.000103352698707
9.6557249912e-05
9.01491568359e-05
8.41382361903e-05
7.85390889928e-05
7.33607881646e-05
6.8600000429e-05
6.42407974719e-05
6.02578461061e-05
5.66201124386e-05
5.32940730039e-05
5.0246234196e-05
4.74449102234e-05
4.48612785973e-05
4.24698275562e-05
4.02483698295e-05
3.81777980148e-05
3.6241719688e-05
3.44260634226e-05
3.27187067995e-05
3.11091495384e-05
2.95882380414e-05
2.81479388431e-05
2.67811546972e-05
2.54815760671e-05
2.42435611976e-05
2.30620388992e-05
2.19324292444e-05
2.08505783623e-05
1.98127043488e-05
1.88153519793e-05
1.78553544289e-05
1.69298006067e-05
1.60360070149e-05
1.51714932706e-05
1.43339606046e-05
1.35212727793e-05
1.27314389685e-05
1.19625982074e-05
1.12130050763e-05
1.04810162994e-05
9.76507795004e-06
9.06371291901e-06
8.37550823028e-06
7.69910164201e-06
7.03316670558e-06
6.37639499535e-06
5.72747343364e-06
5.08505331187e-06
4.44770544404e-06
3.81385252024e-06
3.18166495941e-06
2.54890106936e-06
1.91266908279e-06
1.2690943054e-06
6.12896361003e-07
5.80810692626e-08
0.000334612964364
0.000336958740283
0.000338396063832
0.000338825780795
0.000338530145148
0.000337779444647
0.000336779387629
0.000335664797132
0.000334514467718
0.000333369602705
0.000332248687869
0.000331157552869
0.000330095529081
0.000329058963809
0.000328043105222
0.00032704304169
0.000326054117504
0.000325072072078
0.000324093041919
0.000323113501223
0.000322130180752
0.000321139984328
0.000320139914636
0.000319127007186
0.00031809826845
0.000317050620693
0.00031598085825
0.000314885605167
0.000313761273918
0.000312604023175
0.000311409712632
0.000310173852759
0.000308891547104
0.000307557424402
0.000306165557114
0.000304709362197
0.000303181478744
0.00030157361578
0.000299876361834
0.000298078946432
0.000296168942787
0.000294131902041
0.000291950914763
0.000289606108481
0.00028707411623
0.000284327595437
0.000281334940881
0.000278060409508
0.000274464926764
0.000270507822062
0.000266149611678
0.00026135575547
0.00025610108849
0.000250373930194
0.000244176835555
0.000237519396307
0.000230405729087
0.000222836776045
0.000214839891124
0.000206475212153
0.000197765727482
0.000188676169103
0.000179254858673
0.000169683963563
0.000160124801248
0.00015067707491
0.000141471949271
0.000132645809103
0.000124219145483
0.000116146318989
0.000108439927439
0.000101145750551
9.42763259105e-05
8.78248065052e-05
8.17979408116e-05
7.62138430844e-05
7.108327803e-05
6.64000277431e-05
6.21423176749e-05
5.82780207433e-05
5.4769507894e-05
5.15774292067e-05
4.86635363527e-05
4.59925712377e-05
4.35332638638e-05
4.12586095737e-05
3.91456680656e-05
3.7175110698e-05
3.53306808018e-05
3.35986656717e-05
3.19674282609e-05
3.04270145003e-05
2.89688348357e-05
2.75854108384e-05
2.62701754944e-05
2.50173162055e-05
2.38216510768e-05
2.26785308554e-05
2.15837605466e-05
2.05335361306e-05
1.95243929124e-05