/*--------------------------------*- C++ -*----------------------------------*\
  =========                 |
  \\      /  F ield         | OpenFOAM: The Open Source CFD Toolbox
   \\    /   O peration     | Website:  https://openfoam.org
    \\  /    A nd           | Version:  7
     \\/     M anipulation  |
\*---------------------------------------------------------------------------*/
FoamFile
{
    version     2.0;
    format      ascii;
    class       surfaceScalarField;
    location    "360";
    object      phi;
}
// * * * * * * * * * * * * * * * * * * * * * * * * * * * * * * * * * * * * * //

dimensions      [0 3 -1 0 0 0 0];

internalField   nonuniform List<scalar> 
16192
(
6.9287707157e-10
2.44622926044e-10
4.93470855621e-10
1.99406220048e-10
3.64721692885e-10
1.28749169613e-10
2.82167082451e-10
8.25546212244e-11
2.27606461678e-10
5.45606357375e-11
1.90089333134e-10
3.7517147138e-11
1.63266412418e-10
2.68229423938e-11
1.43419590109e-10
1.98468466198e-11
1.28310521022e-10
1.51090956814e-11
1.16543978579e-10
1.17665710771e-11
1.07217815265e-10
9.32619384487e-12
9.97276534011e-11
7.4901942363e-12
9.36552009847e-11
6.07248665267e-12
8.87024858541e-11
4.95275131663e-12
8.4651903045e-11
4.05062108591e-12
8.13411766595e-11
3.31076693746e-12
7.86471933721e-11
2.69402634049e-12
7.64752694969e-11
2.17196968873e-12
7.47518416968e-11
1.72347666969e-12
7.34193737602e-11
1.33252018753e-12
7.24327344243e-11
9.86695329945e-13
7.17565747307e-11
6.76219822784e-13
7.13633993297e-11
3.93240096215e-13
7.12321290935e-11
1.3133996073e-13
7.13470177849e-11
-1.14813431681e-13
7.16968267618e-11
-3.49727641068e-13
7.22741900244e-11
-5.77275263763e-13
7.30751228603e-11
-8.00837551892e-13
7.40986372069e-11
-1.02341110759e-12
7.53464346215e-11
-1.24768551763e-12
7.68226535197e-11
-1.47609759664e-12
7.85336503881e-11
-1.71086539304e-12
8.04877961804e-11
-1.9540033437e-12
8.2695269082e-11
-2.20731868226e-12
8.51678240311e-11
-2.47238816237e-12
8.79185175774e-11
-2.75051344516e-12
9.09613647383e-11
-3.04265305921e-12
9.43109023461e-11
-3.34932895125e-12
9.7981632338e-11
-3.67050638793e-12
1.01987318824e-10
-4.00544780133e-12
1.06340116667e-10
-4.35254425396e-12
1.11049517549e-10
-4.70913299765e-12
1.16121114606e-10
-5.07131597941e-12
1.21555209084e-10
-5.43380192761e-12
1.2734531321e-10
-5.78980248127e-12
1.33476639652e-10
-6.13101881836e-12
1.39924705486e-10
-6.44775604269e-12
1.46654207772e-10
-6.72919477544e-12
1.53618337743e-10
-6.96382962334e-12
1.60758677932e-10
-7.14005205723e-12
1.68005763722e-10
-7.24681468856e-12
1.75280290112e-10
-7.27427646807e-12
1.82494828006e-10
-7.21431219078e-12
1.89555823044e-10
-7.06079519894e-12
1.9636563285e-10
-6.80963601106e-12
2.02824438141e-10
-6.45865644809e-12
2.08832005558e-10
-6.00744157921e-12
2.14289410577e-10
-5.45729982977e-12
2.19100910466e-10
-4.81141304975e-12
2.2317623484e-10
-4.07525400637e-12
2.26433636472e-10
-3.257346636e-12
2.28803923183e-10
-2.37024696855e-12
2.30235166452e-10
-1.43121983977e-12
2.30697083997e-10
-4.61912685682e-13
2.30183817201e-10
5.13249706704e-13
2.28714239569e-10
1.46953464377e-12
2.26329691068e-10
2.38447586296e-12
2.23089693496e-10
3.23989266318e-12
2.19066743767e-10
4.02281158149e-12
2.14341449633e-10
4.72512359241e-12
2.08998878008e-10
5.34237109145e-12
2.03126288996e-10
5.87236206119e-12
1.96811924007e-10
6.31411585738e-12
1.90144377987e-10
6.66727916574e-12
1.83212122669e-10
6.93197509537e-12
1.76102809767e-10
7.10902342407e-12
1.68902102185e-10
7.20041268548e-12
1.61691993376e-10
7.20981204724e-12
1.54548805245e-10
7.14289277789e-12
1.47541193812e-10
7.00732043498e-12
1.40728495289e-10
6.8124144838e-12
1.34159646014e-10
6.56857438908e-12
1.27872771875e-10
6.28661020114e-12
1.2189541758e-10
5.97710266476e-12
1.16245300408e-10
5.64987882667e-12
1.10931431028e-10
5.31364490111e-12
1.05955439394e-10
4.97578129674e-12
1.01312963477e-10
4.64227969793e-12
9.69949917378e-11
4.31778940564e-12
9.29890858117e-11
4.00573705306e-12
8.92804425567e-11
3.70848730838e-12
8.58527801187e-11
3.42751877933e-12
8.26890511585e-11
3.1635969172e-12
7.97719975225e-11
2.91693249551e-12
7.70845668203e-11
2.6873197637e-12
7.46102131365e-11
2.47425224368e-12
7.23331037888e-11
2.27701673863e-12
7.0238251827e-11
2.09476753192e-12
6.83115914861e-11
1.92658348358e-12
6.65400107587e-11
1.77151085759e-12
6.49113527136e-11
1.62859462448e-12
6.341439457e-11
1.49690065592e-12
6.20388116242e-11
1.37553091885e-12
6.07751312148e-11
1.26363339189e-12
5.96146806506e-11
1.16040814522e-12
5.85495317165e-11
1.06511072119e-12
5.75724435845e-11
9.77053770397e-13
5.66768050326e-11
8.95607702266e-13
5.58565763568e-11
8.20201033387e-13
5.51062306006e-11
7.50321028993e-13
5.44206932611e-11
6.85515267228e-13
5.37952788024e-11
6.25394790184e-13
5.32256216265e-11
5.6963968785e-13
5.270759791e-11
5.18008190937e-13
5.22372333391e-11
4.7035081251e-13
5.1810589412e-11
4.26631739568e-13
5.14236177783e-11
3.86960836992e-13
5.10719667259e-11
3.51641456088e-13
5.07507157262e-11
3.21242419373e-13
5.0454000036e-11
2.96707918771e-13
5.01744644466e-11
2.79528411224e-13
4.99024463825e-11
2.72011224669e-13
4.96247261174e-11
2.77713483716e-13
4.93225956831e-11
3.02123376913e-13
4.89689526832e-11
3.53635299091e-13
4.85246060102e-11
4.44337608041e-13
4.79371168073e-11
5.87477356546e-13
7.53890177382e-13
9.5336188241e-10
2.28761045714e-10
8.59570090405e-10
2.93198018582e-10
7.4506117379e-10
2.43258092258e-10
6.41993429248e-10
1.85622372239e-10
5.56992224026e-10
1.39561848259e-10
4.88847319752e-10
1.05662059378e-10
4.34527332958e-10
8.11429377415e-11
3.9107092461e-10
6.3303264083e-11
3.56057562324e-10
5.01224676412e-11
3.27625536419e-10
4.01986072252e-11
3.04372025374e-10
3.25797157358e-11
2.85243135638e-10
2.66190954651e-11
2.69442978846e-10
2.18726556452e-11
2.56365168469e-10
1.80305746676e-11
2.45543035493e-10
1.48727678811e-11
2.36613880516e-10
1.22399366491e-11
2.2929331138e-10
1.00146111978e-11
2.23356712924e-10
8.10858492171e-12
2.18625746225e-10
6.45446126642e-12
2.1495840951e-10
4.9998759821e-12
2.12241641645e-10
3.70348351757e-12
2.10385758985e-10
2.53212410083e-12
2.09320228699e-10
1.45879334575e-12
2.0899042692e-10
4.61166090394e-13
2.09355129878e-10
-4.79490615619e-13
2.10384553329e-10
-1.37912386579e-12
2.12058805439e-10
-2.25149867459e-12
2.14366653363e-10
-3.10865529622e-12
2.17304522842e-10
-3.96124892443e-12
2.20875665953e-10
-4.8187954931e-12
2.25089442544e-10
-5.68983959463e-12
2.29960666804e-10
-6.58205362894e-12
2.35508973263e-10
-7.50227237418e-12
2.41758156803e-10
-8.45646342489e-12
2.48735439985e-10
-9.44963120852e-12
2.56470618452e-10
-1.04856504708e-11
2.64995032676e-10
-1.15670245648e-11
2.74340312597e-10
-1.26945649074e-11
2.84536842758e-10
-1.38669913637e-11
2.95611901058e-10
-1.50804597374e-11
3.07587437238e-10
-1.63280329364e-11
3.20477479932e-10
-1.75991271394e-11
3.34285196828e-10
-1.88789833796e-11
3.48999681863e-10
-2.01482366866e-11
3.64592606031e-10
-2.13826758155e-11
3.81014938555e-10
-2.25533002537e-11
3.9819401261e-10
-2.36267791306e-11
4.16031257269e-10
-2.45663890573e-11
4.34400924475e-10
-2.53334475872e-11
4.5315008564e-10
-2.5889165726e-11
4.7210004628e-10
-2.61967302213e-11
4.91049137713e-10
-2.62233258034e-11
5.09776632728e-10
-2.59417686482e-11
5.28047369346e-10
-2.53314971727e-11
5.45616635565e-10
-2.4378871698e-11
5.62235007786e-10
-2.30770022937e-11
5.77653088592e-10
-2.14255001161e-11
5.91626321099e-10
-1.94305140486e-11
6.03920186821e-10
-1.71052642569e-11
6.14316188464e-10
-1.44712445979e-11
6.22619102099e-10
-1.1560252311e-11
6.28665748909e-10
-8.41688851605e-12
6.3233462893e-10
-5.10009698137e-12
6.33554563499e-10
-1.68184667429e-12
6.3231005647e-10
1.75775468972e-12
6.28641855808e-10
5.13772994565e-12
6.22642539674e-10
8.38378245293e-12
6.14448136938e-10
1.14342809539e-11
6.04227753861e-10
1.42431749688e-11
5.92173512422e-10
1.67793402181e-11
5.78492444983e-10
1.90234091488e-11
5.63400768522e-10
2.09640055122e-11
5.47120061584e-10
2.25947873059e-11
5.29874588763e-10
2.39127151927e-11
5.11889032204e-10
2.49174945764e-11
4.93385963559e-10
2.56120554849e-11
4.74582594383e-10
2.60037462883e-11
4.55686727108e-10
2.61056450364e-11
4.36892245705e-10
2.59373412759e-11
4.18374739599e-10
2.55247949867e-11
4.00287870484e-10
2.48992533043e-11
3.82760924123e-10
2.40954916128e-11
3.65897744704e-10
2.3149761549e-11
3.49777017314e-10
2.20978029806e-11
3.34453694447e-10
2.09731755755e-11
3.19961269383e-10
1.98060447732e-11
3.06314575294e-10
1.86224511063e-11
2.93512814919e-10
1.74440166965e-11
2.81542581117e-10
1.62880007384e-11
2.70380694695e-10
1.51676019189e-11
2.59996750043e-10
1.40924113419e-11
2.50355313068e-10
1.3068936098e-11
2.41417757318e-10
1.21011340196e-11
2.33143752319e-10
1.11909198997e-11
2.2549243565e-10
1.03386199501e-11
2.18423308768e-10
9.543363808e-12
2.11896899385e-10
8.8034120258e-12
2.05875231666e-10
8.11642241965e-12
2.00322142003e-10
7.47966161937e-12
1.95203473195e-10
6.89016946004e-12
1.90487174922e-10
6.34488402291e-12
1.86143333326e-10
5.84073469367e-12
1.82144148169e-10
5.37470980829e-12
1.78463871958e-10
4.94390457945e-12
1.75078722166e-10
4.54555409954e-12
1.7196677472e-10
4.17705544048e-12
1.6910784461e-10
3.83598218549e-12
1.66483357338e-10
3.52009421806e-12
1.64076213263e-10
3.22734519518e-12
1.61870645202e-10
2.95588991866e-12
1.59852068219e-10
2.70409372276e-12
1.58006918918e-10
2.47054610372e-12
1.5632247999e-10
2.25408107383e-12
1.54786683741e-10
2.05380724334e-12
1.53387886217e-10
1.86915139603e-12
1.52114600693e-10
1.69992048599e-12
1.50955176273e-10
1.5463885612e-12
1.49897403752e-10
1.40941727411e-12
1.48928028148e-10
1.29062123745e-12
1.48032147089e-10
1.19259203244e-12
1.47192483486e-10
1.11919484827e-12
1.46388555042e-10
1.07594222637e-12
1.45595863704e-10
1.07040706385e-12
1.44785498023e-10
1.11249093454e-12
1.43925256284e-10
1.21387843708e-12
1.42985156948e-10
1.38443782973e-12
1.41955845528e-10
1.61678380106e-12
1.83021805912e-12
9.76214318504e-10
1.90046724034e-10
9.63008385546e-10
3.06403955002e-10
9.06220235375e-10
3.00046245407e-10
8.34021445654e-10
2.57821164986e-10
7.61405094422e-10
2.12178202847e-10
6.94776723506e-10
1.72290433773e-10
6.36200148232e-10
1.39719516538e-10
5.85773293289e-10
1.13730122584e-10
5.42807746703e-10
9.3088017847e-11
5.0637820726e-10
7.66281503909e-11
4.75561041433e-10
6.33968854492e-11
4.49525920815e-10
5.26542201957e-11
4.2756106861e-10
4.38375122556e-11
4.09070504406e-10
3.65211436311e-11
3.93561037385e-10
3.03822400715e-11
3.80626867808e-10
2.51741118503e-11
3.69935017689e-10
2.07064674298e-11
3.612126975e-10
1.68309117354e-11
3.54236797154e-10
1.34303687612e-11
3.48825325879e-10
1.04113549279e-11
3.44830511598e-10
7.69830598213e-12
3.4213326247e-10
5.22938189716e-12
3.406387253e-10
2.95333963276e-12
3.40272718008e-10
8.27182892886e-13
3.40978854461e-10
-1.18561723131e-12
3.42716211614e-10
-3.11647094119e-12
3.45457423584e-10
-4.99270042486e-12
3.49187106618e-10
-6.83832809238e-12
3.53900531501e-10
-8.67466368218e-12
3.59602472909e-10
-1.05207270465e-11
3.663061726e-10
-1.23935298601e-11
3.74032357149e-10
-1.43082293609e-11
3.8280825242e-10
-1.62781596067e-11
3.92666536087e-10
-1.83147400144e-11
4.03644167572e-10
-2.04272567318e-11
4.15781031868e-10
-2.26225100755e-11
4.29118331727e-10
-2.49043211094e-11
4.43696662202e-10
-2.72728935351e-11
4.59553705473e-10
-2.97240342825e-11
4.76721493758e-10
-3.22482491625e-11
4.95223207898e-10
-3.48297496368e-11
5.1506951113e-10
-3.74454342483e-11
5.3625446529e-10
-4.00639425615e-11
5.58751140557e-10
-4.26449179347e-11
5.82507109052e-10
-4.51386510169e-11
6.07440099427e-10
-4.74862978379e-11
6.33434171945e-10
-4.96208591323e-11
6.60336830217e-10
-5.14690549107e-11
6.87957492519e-10
-5.29541174357e-11
7.16067676974e-10
-5.3999357651e-11
7.44403097312e-10
-5.45321579821e-11
7.72667627876e-10
-5.44878638304e-11
8.0053882465e-10
-5.38129730063e-11
8.2767447149e-10
-5.2467151731e-11
8.53719567573e-10
-5.04239755562e-11
8.78313347524e-10
-4.76707899363e-11
9.01096258377e-10
-4.42084184513e-11
9.21717103352e-10
-4.00513661677e-11
9.39840665517e-10
-3.52288330578e-11
9.55156186991e-10
-2.97867718819e-11
9.67387257252e-10
-2.37913271441e-11
9.76303532267e-10
-1.73331663415e-11
9.81733556644e-10
-1.05301218758e-11
9.83576241453e-10
-3.52452931908e-12
9.81807931708e-10
3.52606920212e-12
9.76483149111e-10
1.04625193697e-11
9.6772886453e-10
1.71380751116e-11
9.55733568304e-10
2.34295858556e-11
9.40733623124e-10
2.92431291056e-11
9.22999930339e-10
3.45130422809e-11
9.02827059813e-10
3.91962896106e-11
8.8052528814e-10
4.32657883629e-11
8.56414864726e-10
4.67052238065e-11
8.30821622876e-10
4.9505972589e-11
8.04073124372e-10
5.1666011379e-11
7.76494550422e-10
5.31906504708e-11
7.48403752711e-10
5.40945675055e-11
7.20105368678e-10
5.44040545603e-11
6.91884452579e-10
5.41582842581e-11
6.64000392662e-10
5.34088825243e-11
6.3668188699e-10
5.22177867236e-11
6.10123525594e-10
5.06538803222e-11
5.8448421678e-10
4.87890968047e-11
5.59887407361e-10
4.66946376112e-11
5.36422837031e-10
4.44377696454e-11
5.14149450101e-10
4.20794537888e-11
4.93099054917e-10
3.96728666298e-11
4.73280349613e-10
3.72627405375e-11
4.54682998668e-10
3.48853684362e-11
4.37281524957e-10
3.25690906373e-11
4.21038861755e-10
3.03350879054e-11
4.05909477648e-10
2.81983320368e-11
3.91842041487e-10
2.6168580644e-11
3.78781632875e-10
2.42513377732e-11
3.66671528907e-10
2.24487321731e-11
3.55454611805e-10
2.07602883443e-11
3.45074448372e-10
1.91835822716e-11
3.35476092549e-10
1.77147846088e-11
3.26606659658e-10
1.63491006023e-11
3.18415715878e-10
1.50811191984e-11
3.10855520977e-10
1.39050848793e-11
3.03881156298e-10
1.28151054174e-11
2.9745056458e-10
1.18053077394e-11
2.91524522935e-10
1.08699526492e-11
2.86066565966e-10
1.00035177379e-11
2.81042871947e-10
9.20075637343e-12
2.76422121793e-10
8.45673949194e-12
2.72175337508e-10
7.76688586221e-12
2.68275704464e-10
7.12698577276e-12
2.64698379527e-10
6.53322251003e-12
2.61420285231e-10
5.98219574874e-12
2.58419888216e-10
5.47095086219e-12
2.55676958618e-10
4.99701837456e-12
2.53172305356e-10
4.5584681049e-12
2.50887481035e-10
4.15398315989e-12
2.48804449229e-10
3.78295951687e-12
2.46905207283e-10
3.4456374642e-12
2.45171360325e-10
3.14327086002e-12
2.43583649877e-10
2.87833794076e-12
2.42121457651e-10
2.65479008601e-12
2.40762341931e-10
2.47831593155e-12
2.39481737629e-10
2.35655138797e-12
2.38253095549e-10
2.29905347614e-12
2.37049008984e-10
2.31658125902e-12
2.35844346114e-10
2.41854440898e-12
2.34623130393e-10
2.60565590985e-12
2.33389674364e-10
2.85023431192e-12
3.04887431215e-12
9.71788819219e-10
1.55757895919e-10
9.8679260063e-10
2.91400175063e-10
9.68460042663e-10
3.18378804958e-10
9.28411721232e-10
2.97869487929e-10
8.78500141677e-10
2.62089784271e-10
8.26243168416e-10
2.24547409063e-10
7.75785843077e-10
1.90176843948e-10
7.29156812676e-10
1.60359155052e-10
6.87166257244e-10
1.35078575334e-10
6.49962891869e-10
1.13831517831e-10
6.17359820587e-10
9.599995885e-11
5.89018247959e-10
8.09957950538e-11
5.64547633235e-10
6.83081293805e-11
5.43558028355e-10
5.75107511408e-11
5.2568562864e-10
4.8254642696e-11
5.10603649284e-10
4.02560944344e-11
4.98025401063e-10
3.32847192275e-11
4.87703412999e-10
2.71529037407e-11
4.79426722501e-10
2.17070635678e-11
4.73017476129e-10
1.68206059668e-11
4.68327435863e-10
1.23883512527e-11
4.65234681363e-10
8.32214170234e-12
4.63640632152e-10
4.54739440085e-12
4.63467424291e-10
1.00039649533e-12
4.64655630136e-10
-2.37381723139e-12
4.67162281442e-10
-5.62311639577e-12
4.70959160172e-10
-8.78957341383e-12
4.76031305182e-10
-1.19104676029e-11
4.82375682217e-10
-1.50190356076e-11
4.89999966635e-10
-1.8145006907e-11
4.98921386916e-10
-2.13149463093e-11
5.09165575227e-10
-2.45524147408e-11
5.20765368678e-10
-2.7877951205e-11
5.33759501514e-10
-3.13088722407e-11
5.48191124605e-10
-3.48588806035e-11
5.64106084983e-10
-3.85374727436e-11
5.81550895778e-10
-4.23491357805e-11
6.0057032716e-10
-4.62923304121e-11
6.2120455398e-10
-5.03582681877e-11
6.43485808008e-10
-5.45295117803e-11
6.67434505503e-10
-5.87784570822e-11
6.9305485729e-10
-6.30657971463e-11
7.20330021898e-10
-6.73391192015e-11
7.4921693404e-10
-7.15318427666e-11
7.79641029426e-10
-7.55627594833e-11
8.11491185839e-10
-7.93364674831e-11
8.44615295901e-10
-8.27449823874e-11
8.78816956556e-10
-8.56707286056e-11
9.13853775402e-10
-8.79909491509e-11
9.49437724048e-10
-8.95833190795e-11
9.85237792636e-10
-9.03322394352e-11
1.02088492028e-09
-9.01350046073e-11
1.05597883899e-09
-8.89069052369e-11
1.0900961779e-09
-8.6584504478e-11
1.12279908088e-09
-8.31268924166e-11
1.15364380839e-09
-7.85155309279e-11
1.18218924411e-09
-7.27538668697e-11
1.2080055868e-09
-6.58677204475e-11
1.23068352761e-09
-5.79067839709e-11
1.24984418874e-09
-4.89474411833e-11
1.26515051198e-09
-3.90976560686e-11
1.2763210214e-09
-2.85036784035e-11
1.28314544402e-09
-1.73545434724e-11
1.28549899166e-09
-5.8780718533e-12
1.28335113188e-09
5.67393797631e-12
1.2767665073e-09
1.70471558762e-11
1.26589801239e-09
2.80065836254e-11
1.25097352102e-09
3.83540915613e-11
1.23227926367e-09
4.79374011315e-11
1.21014381496e-09
5.66485060275e-11
1.1849254165e-09
6.44147038596e-11
1.15700283122e-09
7.11883908826e-11
1.12676857184e-09
7.69395026777e-11
1.09462348025e-09
8.16510865357e-11
1.06097187464e-09
8.53176424669e-11
1.02621637927e-09
8.79461743352e-11
9.9075169302e-10
8.95592848635e-11
9.54957183927e-10
9.01985967667e-11
9.19188918153e-10
8.99265844423e-11
8.83772110863e-10
8.88257247981e-11
8.48994938781e-10
8.69949936916e-11
8.15104341683e-10
8.45445116461e-11
7.8230405548e-10
8.15894161294e-11
7.50754784943e-10
7.82439398414e-11
7.20576191234e-10
7.4616393389e-11
6.91850246086e-10
7.08054271599e-11
6.64625475086e-10
6.68976639524e-11
6.38921650442e-10
6.29665895584e-11
6.14734570712e-10
5.90724706008e-11
5.92040656609e-10
5.5263025272e-11
5.70801181437e-10
5.15745817858e-11
5.50966031502e-10
4.80334989657e-11
5.32476952304e-10
4.46576752642e-11
5.15270279835e-10
4.14580242554e-11
4.99279185285e-10
3.84398395084e-11
4.84435478408e-10
3.56040069676e-11
4.70671023049e-10
3.2948048528e-11
4.5791882029e-10
3.04669975979e-11
4.46113812698e-10
2.81541179291e-11
4.35193458708e-10
2.60014825775e-11
4.25098120643e-10
2.40004321203e-11
4.15771303779e-10
2.21419313497e-11
4.07159778028e-10
2.04168425312e-11
3.9921360823e-10
1.88161315196e-11
3.91886114072e-10
1.73310210347e-11
3.85133776251e-10
1.59531034131e-11
3.78916101664e-10
1.46744233761e-11
3.73195457071e-10
1.34875398103e-11
3.67936877892e-10
1.23855743366e-11
3.63107856281e-10
1.13622534955e-11
3.58678110617e-10
1.04119507333e-11
3.54619336722e-10
9.52973397245e-12
3.50904939802e-10
8.71142435722e-12
3.47509745081e-10
7.95367168054e-12
3.44409684971e-10
7.25405186879e-12
3.41581461377e-10
6.61119140083e-12
3.39002184666e-10
6.02492210737e-12
3.36648996775e-10
5.49646627255e-12
3.34498697607e-10
5.02864416908e-12
3.32527414549e-10
4.62607968786e-12
3.30710390694e-10
4.2953457591e-12
3.29022025997e-10
4.0449214231e-12
3.27436396542e-10
3.88468757147e-12
3.25928598572e-10
3.82438310094e-12
3.24477359986e-10
3.86978604304e-12
3.23069013666e-10
4.0140044424e-12
3.21700338952e-10
4.21890369135e-12
4.38250064969e-12
9.64016757785e-10
1.29241123997e-10
9.87970986414e-10
2.67445946622e-10
9.90380263326e-10
3.15969528815e-10
9.73322756557e-10
3.14926995213e-10
9.43734480389e-10
2.91678061248e-10
9.07650698365e-10
2.60631192031e-10
8.69255680212e-10
2.28571863075e-10
8.31187639415e-10
1.98427196799e-10
7.94995865325e-10
1.71270350336e-10
7.61514618205e-10
1.47312765841e-10
7.31127830151e-10
1.26386747808e-10
7.03945889019e-10
1.08177737155e-10
6.7992008179e-10
9.23339377006e-11
6.58915122098e-10
7.85157120994e-11
6.4075426218e-10
6.64155041039e-11
6.25246776411e-10
5.57635819548e-11
6.1220425109e-10
4.63272465878e-11
6.01449845927e-10
3.79073112445e-11
5.92823196271e-10
3.03337158676e-11
5.86182653089e-10
2.34611520859e-11
5.81405932074e-10
1.7165075474e-11
5.78389842866e-10
1.13382343479e-11
5.77049513954e-10
5.88772693032e-12
5.77317365894e-10
7.32548284888e-13
5.79141981334e-10
-4.19842891388e-12
5.82486948671e-10
-8.96808004595e-12
5.87329735202e-10
-1.36323564482e-11
5.93660591412e-10
-1.82413206414e-11
6.01481479814e-10
-2.28399213137e-11
6.10805009154e-10
-2.7468534193e-11
6.21653343992e-10
-3.21632799071e-11
6.34057051113e-10
-3.69561216176e-11
6.48053836789e-10
-4.18747378061e-11
6.63687121932e-10
-4.69421596456e-11
6.81004395958e-10
-5.21761583713e-11
7.00055284775e-10
-5.75883668953e-11
7.20889264808e-10
-6.31831228076e-11
7.43552954473e-10
-6.89560287504e-11
7.6808691909e-10
-7.48922431087e-11
7.945219372e-10
-8.09645417205e-11
8.22874699147e-10
-8.71312322111e-11
8.53142945859e-10
-9.3334058173e-11
8.85300111107e-10
-9.94962996313e-11
9.19289606203e-10
-1.05521353637e-10
9.55018982388e-10
-1.11292151767e-10
9.92354317077e-10
-1.16671818366e-10
1.03111528245e-09
-1.21505963885e-10
1.07107144453e-09
-1.25626906674e-10
1.11194037443e-09
-1.28859894947e-10
1.15338809231e-09
-1.31031052906e-10
1.1950321763e-09
-1.31976339665e-10
1.23644754408e-09
-1.3155038916e-10
1.2771744925e-09
-1.29633871072e-10
1.31672818108e-09
-1.26138210953e-10
1.35460858001e-09
-1.21007309213e-10
1.39031017932e-09
-1.14217147395e-10
1.42333140894e-09
-1.05775112323e-10
1.45318422364e-09
-9.57205492472e-11
1.47940416019e-09
-8.41267325016e-11
1.50156091128e-09
-7.11042016391e-11
1.51927027874e-09
-5.68070297286e-11
1.53220944427e-09
-4.14428464355e-11
1.54013567991e-09
-2.52807772739e-11
1.54290412198e-09
-8.64650708529e-12
1.54047858657e-09
8.09948500609e-12
1.53293260628e-09
2.45931512542e-11
1.52044112634e-09
4.04980803981e-11
1.50326452169e-09
5.55307136931e-11
1.48172850246e-09
6.94734381799e-11
1.45620535101e-09
8.21716757772e-11
1.42710008464e-09
9.35199895152e-11
1.39484107588e-09
1.034474208e-10
1.35987305059e-09
1.11907551929e-10
1.32265130359e-09
1.18872860959e-10
1.283636504e-09
1.24332473038e-10
1.24328905184e-09
1.28293660717e-10
1.20206195779e-09
1.30786415725e-10
1.1603921009e-09
1.3186849227e-10
1.11869072099e-09
1.31628003914e-10
1.07733445001e-09
1.3018203549e-10
1.03665803711e-09
1.27671445736e-10
9.9694947267e-10
1.2425311414e-10
9.58447732469e-10
1.20091192897e-10
9.21342978599e-10
1.15348728535e-10
8.85778804607e-10
1.10180600308e-10
8.5185599403e-10
1.04728268678e-10
8.19637247226e-10
9.91164396782e-11
7.89152387775e-10
9.34514759064e-11
7.60403653793e-10
8.78212294854e-11
7.33370784353e-10
8.22959176753e-11
7.08015709531e-10
7.69296777191e-11
6.84286734818e-10
7.17624930475e-11
6.62122173998e-10
6.68222538519e-11
6.41453429617e-10
6.21267849607e-11
6.22207549899e-10
5.76857342847e-11
6.04309308379e-10
5.35022624593e-11
5.87682861172e-10
4.95745088091e-11
5.72253039043e-10
4.58968320802e-11
5.57946329853e-10
4.24608389188e-11
5.44691602731e-10
3.9256221094e-11
5.32420619967e-10
3.62714260021e-11
5.2106837668e-10
3.34941855795e-11
5.10573302457e-10
3.0911927606e-11
5.00877353525e-10
2.85120912655e-11
4.9192601901e-10
2.62823663601e-11
4.83668260211e-10
2.4210873033e-11
4.76056397897e-10
2.22862965178e-11
4.69045959171e-10
2.04979893511e-11
4.62595492515e-10
1.88360517633e-11
4.56666357147e-10
1.72913995521e-11
4.51222490771e-10
1.58558276708e-11
4.46230158214e-10
1.45220769129e-11
4.41657682316e-10
1.32839104113e-11
4.37475157902e-10
1.21362059719e-11
4.33654149994e-10
1.10750693245e-11
4.30167378872e-10
1.00979716895e-11
4.2698839785e-10
9.20391186436e-12
4.24091275495e-10
8.39359687704e-12
4.21450303805e-10
7.66962356948e-12
4.19039769135e-10
7.03662146706e-12
4.16833845306e-10
6.50127603453e-12
4.14806698718e-10
6.07207372111e-12
4.1293292821e-10
5.75846298295e-12
4.11188469767e-10
5.56884556903e-12
4.09551965493e-10
5.50629342649e-12
4.08005932161e-10
5.56004002297e-12
4.06534653237e-10
5.69017741658e-12
5.80595114946e-12
9.57664328914e-10
1.09076776407e-10
9.82960399792e-10
2.42149874992e-10
9.95903622051e-10
3.03026306883e-10
9.93735175422e-10
3.17095441675e-10
9.79590505644e-10
3.05822731054e-10
9.57562535093e-10
2.8265916271e-10
9.31095555475e-10
2.55038842838e-10
9.0271688073e-10
2.26805871663e-10
8.74160194442e-10
1.99827036702e-10
8.46558651519e-10
1.74914308815e-10
8.20616924489e-10
1.52328474897e-10
7.96744169069e-10
1.32050492691e-10
7.75150992468e-10
1.13927114528e-10
7.55918107969e-10
9.77485969887e-11
7.3904407143e-10
8.32895412428e-11
7.24478033334e-10
7.03296208989e-11
7.12141944665e-10
5.86633363798e-11
7.01945425071e-10
4.81038322529e-11
6.93795568737e-10
3.84835739121e-11
6.87603282515e-10
2.96534403072e-11
6.83287264458e-10
2.14810958016e-11
6.80776387806e-10
1.38491135092e-11
6.80011015366e-10
6.65310207344e-12
6.80943601854e-10
-2.00035365004e-13
6.83538819903e-10
-6.79364406585e-12
6.87773369965e-10
-1.32026272444e-11
6.93635590645e-10
-1.94945744051e-11
7.01124913757e-10
-2.57306412985e-11
7.10251199625e-10
-3.19662051352e-11
7.21033962547e-10
-3.8251295631e-11
7.3350147927e-10
-4.46307958753e-11
7.47689759467e-10
-5.11444019597e-11
7.63641345588e-10
-5.78263251397e-11
7.81403899383e-10
-6.47047158799e-11
8.01028523595e-10
-7.18007863887e-11
8.22567759888e-10
-7.91276084688e-11
8.46073198677e-10
-8.66885684167e-11
8.71592634167e-10
-9.44754726159e-11
8.99166700428e-10
-1.02466319256e-10
9.28824934056e-10
-1.10622786638e-10
9.60581229373e-10
-1.18887540057e-10
9.94428687236e-10
-1.27181529589e-10
1.03033391294e-09
-1.35401539663e-10
1.06823089655e-09
-1.43418352108e-10
1.10801471224e-09
-1.51075982622e-10
1.14953539813e-09
-1.58192519532e-10
1.1925925126e-09
-1.6456309365e-10
1.23693098165e-09
-1.69965391054e-10
1.28223891488e-09
-1.74167843649e-10
1.32814802589e-09
-1.76940179759e-10
1.37423709832e-09
-1.78065428621e-10
1.42003856259e-09
-1.77351870961e-10
1.46504771471e-09
-1.74643041851e-10
1.50873354728e-09
-1.69824063004e-10
1.55054986958e-09
-1.62823651055e-10
1.58994574152e-09
-1.53613037883e-10
1.62637524655e-09
-1.42204634081e-10
1.65930743312e-09
-1.28652750357e-10
1.6882367974e-09
-1.13056108842e-10
1.71269380814e-09
-9.55612214738e-11
1.73225640107e-09
-7.63696282989e-11
1.74656624072e-09
-5.57526880019e-11
1.75535135278e-09
-3.40658868189e-11
1.75844875999e-09
-1.17439064046e-11
1.75581786606e-09
1.07303920966e-11
1.74754138828e-09
3.2869645544e-11
1.73381535617e-09
5.42241299566e-11
1.71492973386e-09
7.44163531996e-11
1.69124371294e-09
9.31594760747e-11
1.66316365846e-09
1.1025174742e-10
1.63112876726e-09
1.25554898772e-10
1.59560251014e-09
1.38973698103e-10
1.5570661188e-09
1.50443966946e-10
1.51601298383e-09
1.5992602389e-10
1.47294377682e-09
1.67401712308e-10
1.4283609655e-09
1.72876508028e-10
1.38276116017e-09
1.76386259874e-10
1.3366250902e-09
1.78004602821e-10
1.29040647286e-09
1.77846662551e-10
1.24452154752e-09
1.76067001908e-10
1.19934071132e-09
1.72852322028e-10
1.1551830364e-09
1.68410827639e-10
1.11231383712e-09
1.6296042892e-10
1.07094501595e-09
1.56717584442e-10
1.03123765846e-09
1.49887990476e-10
9.93306244247e-10
1.42659713515e-10
9.57223852887e-10
1.35198859634e-10
9.23027828589e-10
1.27647526829e-10
8.9072548497e-10
1.20123597825e-10
8.60299553181e-10
1.12721872359e-10
8.31713184525e-10
1.05516067544e-10
8.0491440523e-10
9.85612918958e-11
7.79839985162e-10
9.18966919953e-11
7.56418726241e-10
8.55480606277e-11
7.34574204427e-10
7.95302716803e-11
7.14227014963e-10
7.38494665116e-11
6.95296577947e-10
6.85049595935e-11
6.777025628e-10
6.34908603418e-11
6.61365988065e-10
5.87974262696e-11
6.46210048636e-10
5.44121727793e-11
6.32160717097e-10
5.03207695555e-11
6.19147160026e-10
4.65077545177e-11
6.07102004334e-10
4.29570950897e-11
5.95961483248e-10
3.96526241158e-11
5.85665486561e-10
3.65783748098e-11
5.76157535307e-10
3.37188360558e-11
5.67384697099e-10
3.1059146491e-11
5.59297454986e-10
2.85852431976e-11
5.5184953982e-10
2.6283978599e-11
5.44997733648e-10
2.41432172826e-11
5.38701649779e-10
2.21519229386e-11
5.32923493576e-10
2.03002443016e-11
5.27627807077e-10
1.85796078293e-11
5.22781200057e-10
1.69828235875e-11
5.18352070427e-10
1.55042091724e-11
5.14310318004e-10
1.41397338999e-11
5.10627058082e-10
1.28871810873e-11
5.07274345223e-10
1.17463184943e-11
5.04224923644e-10
1.07190533051e-11
5.01452028796e-10
9.80952380687e-12
4.98929274466e-10
9.02403712269e-12
4.96630667458e-10
8.37068668305e-12
4.94530785314e-10
7.85835020719e-12
4.9260509343e-10
7.49454159951e-12
4.90830155027e-10
7.28123502879e-12
4.8918280855e-10
7.20738883943e-12
4.87635831561e-10
7.23714927534e-12
7.2956806691e-12
9.53077648521e-10
9.34991054047e-11
9.77001492249e-10
2.18226029847e-10
9.94872268938e-10
2.85155530315e-10
1.00195146885e-09
3.10016241222e-10
9.98851059268e-10
3.08923140189e-10
9.8796802958e-10
2.9354219201e-10
9.71834567246e-10
2.71172304783e-10
9.52575275305e-10
2.46065163186e-10
9.31815237976e-10
2.20587073574e-10
9.10736955435e-10
1.95992590877e-10
8.90171131135e-10
1.72894298735e-10
8.706826884e-10
1.51538935027e-10
8.52641642475e-10
1.31968160175e-10
8.36278187163e-10
1.14112052193e-10
8.21724265349e-10
9.78434631688e-11
8.09044399104e-10
8.30094875154e-11
7.98258284795e-10
6.94494513477e-11
7.89357197611e-10
5.70049204038e-11
7.82315798891e-10
4.55249739179e-11
7.77100557881e-10
3.48686829219e-11
7.73675695402e-10
2.49059601943e-11
7.72007321997e-10
1.55174891124e-11
7.72066264918e-10
6.59416160289e-12
7.7382994508e-10
-1.96371287108e-12
7.77283552698e-10
-1.02472488855e-11
7.82420724817e-10
-1.83397965012e-11
7.89243851988e-10
-2.63176987456e-11
7.97764090452e-10
-3.42508770732e-11
8.08001138621e-10
-4.22032508821e-11
8.19982808081e-10
-5.02329630765e-11
8.33744399169e-10
-5.83923855085e-11
8.49327874608e-10
-6.67278766616e-11
8.66780810646e-10
-7.52792613182e-11
8.86155092914e-10
-8.40789993175e-11
9.07505313383e-10
-9.31510091935e-11
9.30886815405e-10
-1.025091141e-10
9.56353326166e-10
-1.12155084134e-10
9.83954110965e-10
-1.22076263741e-10
1.01373058296e-09
-1.32242798917e-10
1.04571230795e-09
-1.42604520544e-10
1.07991235972e-09
-1.53087601855e-10
1.11632201237e-09
-1.63591193174e-10
1.15490480732e-09
-1.73984346267e-10
1.1955901114e-09
-1.84103668345e-10
1.23826639199e-09
-1.93752275684e-10
1.28277457697e-09
-2.02700717213e-10
1.32890203002e-09