/*--------------------------------*- C++ -*----------------------------------*\
  =========                 |
  \\      /  F ield         | OpenFOAM: The Open Source CFD Toolbox
   \\    /   O peration     | Website:  https://openfoam.org
    \\  /    A nd           | Version:  7
     \\/     M anipulation  |
\*---------------------------------------------------------------------------*/
FoamFile
{
    version     2.0;
    format      ascii;
    class       volVectorField;
    location    "360";
    object      U;
}
// * * * * * * * * * * * * * * * * * * * * * * * * * * * * * * * * * * * * * //

dimensions      [0 1 -1 0 0 0 0];

internalField   nonuniform List<vector> 
8192
(
(0.0010434413258 0.000156558672668 0)
(0.000759262673402 0.000127619980831 0)
(0.000549243231044 8.23994685521e-05 0)
(0.000414008816215 5.28349575836e-05 0)
(0.000326255068243 3.4918806872e-05 0)
(0.00026732530868 2.40109741683e-05 0)
(0.000226147677154 1.7166683132e-05 0)
(0.000196279041617 1.27019818367e-05 0)
(0.000173907271124 9.66982123607e-06 0)
(0.000156706879745 7.53060548935e-06 0)
(0.000143207548061 5.96876406072e-06 0)
(0.000132445099946 4.79372431123e-06 0)
(0.000123765026807 3.88639145771e-06 0)
(0.000116708919577 3.16976084264e-06 0)
(0.000110946808895 2.59239749498e-06 0)
(0.000106235571011 2.11889083997e-06 0)
(0.00010239255682 1.72417685792e-06 0)
(9.92783762362e-05 1.39006060079e-06 0)
(9.6785351164e-05 1.1030250686e-06 0)
(9.48295778925e-05 8.52812920019e-07 0)
(9.33453492381e-05 6.31485011165e-07 0)
(9.22811578592e-05 4.32780686582e-07 0)
(9.15967833986e-05 2.51673661577e-07 0)
(9.12611381908e-05 8.4057574867e-08 0)
(9.12506540021e-05 -7.34805962757e-08 0)
(9.15480605099e-05 -2.23825690283e-07 0)
(9.21414507432e-05 -3.69456168809e-07 0)
(9.30235602462e-05 -5.12536033211e-07 0)
(9.4191206443e-05 -6.54983108856e-07 0)
(9.56448459702e-05 -7.98518731281e-07 0)
(9.73882164104e-05 -9.44702461849e-07 0)
(9.9428034501e-05 -1.09495385155e-06 0)
(0.000101773725804 -1.25056213997e-06 0)
(0.000104437161768 -1.41268395665e-06 0)
(0.000107432379592 -1.58232842391e-06 0)
(0.000110775258629 -1.7603286049e-06 0)
(0.000114483124682 -1.9472979579e-06 0)
(0.000118574250934 -2.1435705288e-06 0)
(0.000123067222198 -2.34912408828e-06 0)
(0.000127980128744 -2.56348659285e-06 0)
(0.000133329558714 -2.78562832253e-06 0)
(0.000139129365898 -3.0138451185e-06 0)
(0.000145389204579 -3.24564222682e-06 0)
(0.000152112847162 -3.47763323367e-06 0)
(0.000159296334269 -3.70547358802e-06 0)
(0.000166926049832 -3.92385204375e-06 0)
(0.000174976860888 -4.12656386732e-06 0)
(0.000183410504485 -4.30668465628e-06 0)
(0.00019217442913 -4.45685095894e-06 0)
(0.000201201290032 -4.56963331663e-06 0)
(0.000210409242659 -4.63796140068e-06 0)
(0.000219703074454 -4.65553693956e-06 0)
(0.000228976075596 -4.6171598021e-06 0)
(0.000238112416672 -4.51890892732e-06 0)
(0.000246989731772 -4.35816704708e-06 0)
(0.000255481645434 -4.13354012678e-06 0)
(0.000263460123967 -3.8447626107e-06 0)
(0.000270797706327 -3.49267189105e-06 0)
(0.000277369805468 -3.07930435184e-06 0)
(0.000283057372995 -2.60816256408e-06 0)
(0.00028775031764 -2.08470184704e-06 0)
(0.000291352038179 -1.51695805987e-06 0)
(0.000293785017366 -9.15980697454e-07 0)
(0.000294996640287 -2.95624118837e-07 0)
(0.000294963776766 3.28479812291e-07 0)
(0.000293694756333 9.40502172016e-07 0)
(0.000291228115608 1.5260645523e-06 0)
(0.000287628406121 2.07353130443e-06 0)
(0.000282980119848 2.57459941216e-06 0)
(0.000277381243776 3.02407909914e-06 0)
(0.00027093780969 3.41911749853e-06 0)
(0.000263760106883 3.75831171916e-06 0)
(0.000255960456322 4.04103414873e-06 0)
(0.000247652033276 4.26705866607e-06 0)
(0.00023894816042 4.43646406103e-06 0)
(0.000229961556759 4.54977499141e-06 0)
(0.00022080314365 4.60826411871e-06 0)
(0.000211580221159 4.61427971024e-06 0)
(0.000202394111118 4.57145137785e-06 0)
(0.000193337599397 4.48468507839e-06 0)
(0.000184492601025 4.35994526963e-06 0)
(0.000175928410434 4.20388760901e-06 0)
(0.000167700747449 4.02343052873e-06 0)
(0.000159851641251 3.82534570544e-06 0)
(0.000152410059512 3.61592244907e-06 0)
(0.000145393108119 3.40073273671e-06 0)
(0.00013880759707 3.18450002991e-06 0)
(0.000132651777838 2.97105900668e-06 0)
(0.000126917091337 2.76338521961e-06 0)
(0.000121589809632 2.56367171396e-06 0)
(0.000116652498156 2.37343187736e-06 0)
(0.000112085262512 2.19361201877e-06 0)
(0.000107866772017 2.02470202701e-06 0)
(0.000103975071156 1.86683679712e-06 0)
(0.000100388201179 1.71988464877e-06 0)
(9.70846591723e-05 1.58352143596e-06 0)
(9.40437228322e-05 1.45729071272e-06 0)
(9.12456675941e-05 1.34065122043e-06 0)
(8.86718997204e-05 1.23301342949e-06 0)
(8.63050254367e-05 1.13376694886e-06 0)
(8.41288726223e-05 1.04230055967e-06 0)
(8.21284782615e-05 9.58016419787e-07 0)
(8.02900519643e-05 8.80339788066e-07 0)
(7.8600923417e-05 8.08725370813e-07 0)
(7.70494795938e-05 7.42661212941e-07 0)
(7.56250959149e-05 6.81670861559e-07 0)
(7.43180641927e-05 6.25314413054e-07 0)
(7.3119519115e-05 5.73188929451e-07 0)
(7.20213640892e-05 5.24928661368e-07 0)
(7.10161964528e-05 4.80205458556e-07 0)
(7.00972312715e-05 4.38729771026e-07 0)
(6.92582221206e-05 4.00252665718e-07 0)
(6.84933762745e-05 3.64569400224e-07 0)
(6.77972605034e-05 3.315252422e-07 0)
(6.71646919994e-05 3.01024520006e-07 0)
(6.65906065607e-05 2.73044313324e-07 0)
(6.60698926018e-05 2.47654935675e-07 0)
(6.55971740827e-05 2.25050531896e-07 0)
(6.51665167693e-05 2.05595148399e-07 0)
(6.47710180878e-05 1.89893068013e-07 0)
(6.44022172688e-05 1.78898183183e-07 0)
(6.40492229306e-05 1.74087183788e-07 0)
(6.36973903999e-05 1.77736629578e-07 0)
(6.33262859523e-05 1.93358961225e-07 0)
(6.29065909544e-05 2.26326591418e-07 0)
(6.23958775638e-05 2.84376069146e-07 0)
(6.17355026032e-05 3.75985508189e-07 0)
(6.08770054286e-05 4.82489713525e-07 0)
(0.00121015160474 0.000302965741925 0)
(0.0011602764626 0.000315266712723 0)
(0.00102696400909 0.000238084647597 0)
(0.000887714945945 0.000171633275817 0)
(0.000767350818095 0.000124238389758 0)
(0.000669337308018 9.16346921701e-05 0)
(0.000590959777735 6.90981632866e-05 0)
(0.000528382884844 5.32160708498e-05 0)
(0.000478162231638 4.17482005264e-05 0)
(0.000437557183196 3.32577141135e-05 0)
(0.000404478439548 2.68197821317e-05 0)
(0.000377353703047 2.18299454089e-05 0)
(0.00035499911327 1.78848910706e-05 0)
(0.000336517214282 1.47093286299e-05 0)
(0.000321221250536 1.21109689389e-05 0)
(0.000308580426246 9.95245029541e-06 0)
(0.000298180602814 8.13352802451e-06 0)
(0.000289696015555 6.57955495068e-06 0)
(0.000282868773855 5.23388027911e-06 0)
(0.00027749385967 4.05273354856e-06 0)
(0.000273408032739 3.00171446241e-06 0)
(0.000270481536403 2.05334011112e-06 0)
(0.000268611832118 1.18530140286e-06 0)
(0.000267718819596 3.79203872719e-07 0)
(0.000267741156351 -3.80354590272e-07 0)
(0.000268633397253 -1.10646496439e-06 0)
(0.000270363749611 -1.81041532055e-06 0)
(0.000272912293633 -2.50207542279e-06 0)
(0.000276269552771 -3.19018242049e-06 0)
(0.000280435320829 -3.88254784686e-06 0)
(0.000285417669438 -4.58619980241e-06 0)
(0.000291232069983 -5.30746817407e-06 0)
(0.000297900569643 -6.05201645944e-06 0)
(0.000305450963242 -6.82482054858e-06 0)
(0.000313915901944 -7.63009239737e-06 0)
(0.0003233318774 -8.47114490622e-06 0)
(0.000333738016722 -9.35019367937e-06 0)
(0.000345174620975 -1.02680920695e-05 0)
(0.000357681379427 -1.1223998561e-05 0)
(0.000371295196042 -1.22149808248e-05 0)
(0.00038604757651 -1.32355694019e-05 0)
(0.000401961546989 -1.42772864877e-05 0)
(0.000419048113126 -1.53281915898e-05 0)
(0.000437302322363 -1.63725047131e-05 0)
(0.000456699064252 -1.739038611e-05 0)
(0.000477188828535 -1.83579642061e-05 0)
(0.000498693728746 -1.92477025109e-05 0)
(0.000521104172722 -2.0029173653e-05 0)
(0.000544276596316 -2.06702574147e-05 0)
(0.000568032646474 -2.11386993813e-05 0)
(0.000592160084429 -2.14038687423e-05 0)
(0.000616415477755 -2.14384654537e-05 0)
(0.000640528493082 -2.12198917369e-05 0)
(0.000664207361328 -2.07310671179e-05 0)
(0.000687144963144 -1.99606449338e-05 0)
(0.000709025051745 -1.89028215948e-05 0)
(0.000729528381682 -1.7557082685e-05 0)
(0.000748338822202 -1.59282008821e-05 0)
(0.000765149765069 -1.40266734763e-05 0)
(0.000779671280182 -1.18697591067e-05 0)
(0.00079163858596 -9.48326332609e-06 0)
(0.000800822304645 -6.90376671014e-06 0)
(0.000807040241817 -4.18004276553e-06 0)
(0.000810169083155 -1.37200599038e-06 0)
(0.00081015335678 1.45344281371e-06 0)
(0.000807009223858 4.22864933723e-06 0)
(0.000800822013109 6.89168532217e-06 0)
(0.000791738033032 9.39147111496e-06 0)
(0.000779952570111 1.16902313922e-05 0)
(0.000765696810421 1.37628568387e-05 0)
(0.000749226212739 1.55940993538e-05 0)
(0.000730811656643 1.71752752469e-05 0)
(0.000710733331268 1.85016980245e-05 0)
(0.000689276576222 1.95711963894e-05 0)
(0.000666728717419 2.03836605899e-05 0)
(0.000643375997288 2.09414905017e-05 0)
(0.000619499877083 2.12506617432e-05 0)
(0.000595372365754 2.13218925335e-05 0)
(0.000571250542601 2.11713497945e-05 0)
(0.000547370870595 2.08205538699e-05 0)
(0.000523944070453 2.02954673844e-05 0)
(0.000501151228548 1.96250022412e-05 0)
(0.000479141548049 1.88392779201e-05 0)
(0.000458031847691 1.7967939613e-05 0)
(0.000437907655527 1.70387548174e-05 0)
(0.000418825576851 1.60766013916e-05 0)
(0.000400816540593 1.51028687379e-05 0)
(0.000383889529736 1.41352296924e-05 0)
(0.000368035453463 1.31877056922e-05 0)
(0.00035323089652 1.2270936942e-05 0)
(0.000339441564632 1.13925751362e-05 0)
(0.000326625320391 1.05577311215e-05 0)
(0.000314734765047 9.76942779956e-06 0)
(0.000303719366168 9.02902553294e-06 0)
(0.000293527160301 8.3366014168e-06 0)
(0.000284106076428 7.69127427308e-06 0)
(0.000275404933218 7.09147440924e-06 0)
(0.000267374163873 6.53516156901e-06 0)
(0.000259966319149 6.01999686589e-06 0)
(0.000253136393727 5.54347540328e-06 0)
(0.000246842014795 5.10302633433e-06 0)
(0.000241043525279 4.69608662374e-06 0)
(0.000235703988157 4.32015406537e-06 0)
(0.000230789132881 3.97282430166e-06 0)
(0.000226267260239 3.65181583664e-06 0)
(0.000222109118007 3.35498634347e-06 0)
(0.000218287756372 3.08034301177e-06 0)
(0.000214778369247 2.82604922901e-06 0)
(0.000211558125184 2.59042958628e-06 0)
(0.000208605989418 2.3719750065e-06 0)
(0.00020590253659 2.16934975359e-06 0)
(0.000203429751768 1.9814021721e-06 0)
(0.000201170815301 1.80718128747e-06 0)
(0.000199109864788 1.64596187794e-06 0)
(0.000197231724773 1.49728141346e-06 0)
(0.000195521591622 1.36099342436e-06 0)
(0.000193964657258 1.23734361484e-06 0)
(0.000192545651215 1.12707758733e-06 0)
(0.000191248276416 1.03159274037e-06 0)
(0.000190054512152 9.53151968773e-07 0)
(0.000188943763568 8.95182886077e-07 0)
(0.000187891864658 8.62690208666e-07 0)
(0.000186870027997 8.6279715044e-07 0)
(0.000185844071505 9.05353159333e-07 0)
(0.000184774882757 1.00320879115e-06 0)
(0.000183622664468 1.17041628018e-06 0)
(0.000182362241584 1.41072714087e-06 0)
(0.0001810146177 1.65382927136e-06 0)
(0.00122477716384 0.000268036972639 0)
(0.00124110253059 0.000383745263094 0)
(0.00119630631739 0.000347714776106 0)
(0.00111375467586 0.000283803863824 0)
(0.00102107298565 0.000225113632708 0)
(0.000931956363474 0.000177889595617 0)
(0.000851825197913 0.000141351970739 0)
(0.000782063002574 0.000113301367467 0)
(0.000722291865595 9.16547107124e-05 0)
(0.000671479010536 7.47691248743e-05 0)
(0.000628441119164 6.14250247584e-05 0)
(0.000592055655839 5.07349220229e-05 0)
(0.000561335673232 4.20545074565e-05 0)
(0.00053544420673 3.49130997111e-05 0)
(0.000513684186746 2.89632050896e-05 0)
(0.000495480259323 2.39449910396e-05 0)
(0.000480359606718 1.96614903216e-05 0)
(0.000467934537721 1.59612778605e-05 0)
(0.000457887676579 1.27262912177e-05 0)
(0.000449959758741 9.86318778243e-06 0)
(0.000443939735985 7.29714527981e-06 0)
(0.000439656815403 4.96736383872e-06 0)
(0.000436974072172 2.82376510625e-06 0)
(0.000435783323717 8.24543349299e-07 0)
(0.00043600100638 -1.06566902204e-06 0)
(0.000437564842288 -2.87718067647e-06 0)
(0.000440431126527 -4.63628742365e-06 0)
(0.00044457249933 -6.36606936871e-06 0)
(0.000449976088396 -8.08698406823e-06 0)
(0.000456641922822 -9.81729442534e-06 0)
(0.000464581533126 -1.1573356451e-05 0)
(0.000473816659039 -1.33697811135e-05 0)
(0.000484377990124 -1.52194764678e-05 0)
(0.000496303864644 -1.71335702012e-05 0)
(0.000509638850342 -1.91212082818e-05 0)
(0.000524432127642 -2.11892227496e-05 0)
(0.000540735592701 -2.33416612315e-05 0)
(0.000558601596115 -2.55791734032e-05 0)
(0.000578080235312 -2.78982564136e-05 0)
(0.000599216127508 -3.02903736959e-05 0)
(0.00062204460906 -3.27409808469e-05 0)
(0.000646587340178 -3.52285192881e-05 0)
(0.000672847344909 -3.77234726023e-05 0)
(0.000700803587742 -4.01876189576e-05 0)
(0.00073040527975 -4.25736491728e-05 0)
(0.000761566213427 -4.48253427786e-05 0)
(0.000794159533678 -4.68784884882e-05 0)
(0.000828013441384 -4.86626841395e-05 0)
(0.000862908366552 -5.01040416146e-05 0)
(0.000898576108476 -5.11286549613e-05 0)
(0.000934701295543 -5.16664884501e-05 0)
(0.00097092526412 -5.16551613656e-05 0)
(0.00100685212962 -5.10430346589e-05 0)
(0.00104205650953 -4.97911352984e-05 0)
(0.001076092185 -4.78738222426e-05 0)
(0.00110850106566 -4.52785870272e-05 0)
(0.00113882214778 -4.20057078831e-05 0)
(0.00116660055151 -3.80684033384e-05 0)
(0.00119139697208 -3.34938222814e-05 0)
(0.0012127979856 -2.83251305471e-05 0)
(0.00123042780432 -2.26250108513e-05 0)
(0.00124396210529 -1.64800351089e-05 0)
(0.0012531437369 -1.00033400686e-05 0)
(0.00125779827078 -3.33208063576e-06 0)
(0.00125784587082 3.38164729078e-06 0)
(0.00125330629172 9.98415956183e-06 0)
(0.00124429568873 1.63339888413e-05 0)
(0.00123101595701 2.23128747581e-05 0)
(0.00121373900251 2.78312346076e-05 0)
(0.00119278947422 3.28271247993e-05 0)
(0.0011685292737 3.72606072061e-05 0)
(0.00114134550269 4.11070680801e-05 0)
(0.00111164169783 4.43520071119e-05 0)
(0.00107983135207 4.69879601803e-05 0)
(0.00104633263824 4.90134438115e-05 0)
(0.00101156331187 5.04337318116e-05 0)
(0.000975934914005 5.1262920828e-05 0)
(0.000939845837689 5.15262077419e-05 0)
(0.000903673485604 5.12612003418e-05 0)
(0.000867766300954 5.0517553607e-05 0)
(0.000832436658977 4.93549056179e-05 0)
(0.000797955464053 4.78395980384e-05 0)
(0.000764548955119 4.60408693464e-05 0)
(0.00073239783945 4.40271619787e-05 0)
(0.00070163855641 4.18630049414e-05 0)
(0.000672366263764 3.96067190797e-05 0)
(0.000644639043211 3.73090033511e-05 0)
(0.000618482818899 3.50123246297e-05 0)
(0.0005938965429 3.27509562717e-05 0)
(0.00057085729512 3.0551483236e-05 0)
(0.000549325047495 2.84335995183e-05 0)
(0.000529246937218 2.64110516063e-05 0)
(0.000510560972246 2.44926173847e-05 0)
(0.000493199151591 2.26830449107e-05 0)
(0.00047709002354 2.09839053588e-05 0)
(0.000462160730056 1.93943373775e-05 0)
(0.000448338598513 1.79116763504e-05 0)
(0.000435552346189 1.65319724982e-05 0)
(0.000423732961412 1.52504078219e-05 0)
(0.000412814320343 1.40616247414e-05 0)
(0.000402733591587 1.29599800974e-05 0)
(0.000393431473456 1.19397376711e-05 0)
(0.000384852301361 1.09952112305e-05 0)
(0.000376944056009 1.01208686263e-05 0)
(0.000369658296897 9.31140597596e-06 0)
(0.000362950040264 8.5617995609e-06 0)
(0.000356777595994 7.86734187356e-06 0)
(0.000351102373953 7.22366725137e-06 0)
(0.000345888666862 6.62677181948e-06 0)
(0.000341103413754 6.07303195436e-06 0)
(0.000336715945446 5.55922526176e-06 0)
(0.000332697711006 5.08255805818e-06 0)
(0.000329021981974 4.64070364697e-06 0)
(0.000325663528943 4.23185622287e-06 0)
(0.00032259826329 3.85480611579e-06 0)
(0.000319802835369 3.50904320183e-06 0)
(0.000317254180167 3.19489665626e-06 0)
(0.000314929003269 2.91372040585e-06 0)
(0.000312803206529 2.66813387406e-06 0)
(0.000310851268818 2.4623245558e-06 0)
(0.000309045631732 2.30240689908e-06 0)
(0.000307356210918 2.19679591318e-06 0)
(0.000305750293234 2.15645474559e-06 0)
(0.000304193346901 2.19460620388e-06 0)
(0.000302651747263 2.32475062148e-06 0)
(0.000301099184965 2.55365999333e-06 0)
(0.000299528195044 2.8588915923e-06 0)
(0.000297958825773 3.12261911761e-06 0)
(0.0012219448443 0.00022131495677 0)
(0.0012534921087 0.000382594643241 0)
(0.00125136169171 0.000395792032234 0)
(0.00121399792889 0.000355642017866 0)
(0.00115642359226 0.000303531511756 0)
(0.00109103571846 0.000253976219415 0)
(0.00102529856736 0.000211133670711 0)
(0.000963163299682 0.000175417137687 0)
(0.000906446764748 0.000146026619636 0)
(0.000855762655432 0.000121894187662 0)
(0.000811086535972 0.000102013980351 0)
(0.00077208196387 8.55360097597e-05 0)
(0.000738282163965 7.17732106471e-05 0)
(0.000709187623418 6.0180412654e-05 0)
(0.000684315940477 5.03276049712e-05 0)
(0.000663225137872 4.18753320222e-05 0)
(0.000645522592222 3.45543594606e-05 0)
(0.000630866441 2.81496419047e-05 0)
(0.000618963286719 2.24879566905e-05 0)
(0.000609564287123 1.74284549726e-05 0)
(0.000602460743675 1.28554606303e-05 0)
(0.000597479755025 8.67297510368e-06 0)
(0.00059448020065 4.80046978151e-06 0)
(0.000593349156124 1.16965080846e-06 0)
(0.000593998754834 -2.27803805613e-06 0)
(0.00059636346341 -5.59333589565e-06 0)
(0.000600397722633 -8.82065525676e-06 0)
(0.000606073897827 -1.1999229245e-05 0)
(0.000613380471936 -1.51639675455e-05 0)
(0.000622320415265 -1.83460697302e-05 0)
(0.000632909666273 -2.15734247484e-05 0)
(0.000645175655772 -2.48708122251e-05 0)
(0.000659155804099 -2.82599109195e-05 0)
(0.000674895916923 -3.17591118433e-05 0)
(0.000692448400716 -3.53831278946e-05 0)
(0.000711870214137 -3.91423890042e-05 0)
(0.000733220467687 -4.30422124095e-05 0)
(0.00075655758268 -4.70817433262e-05 0)
(0.00078193592393 -5.12526735809e-05 0)
(0.000809401831672 -5.55377670034e-05 0)
(0.000838989000647 -5.99092523002e-05 0)
(0.000870713192187 -6.43271880925e-05 0)
(0.00090456632268 -6.87379595284e-05 0)
(0.0009405100518 -7.30731268489e-05 0)
(0.000978469096618 -7.72489027202e-05 0)
(0.00101832461777 -8.11665698054e-05 0)
(0.00105990814831 -8.47141385726e-05 0)
(0.00110299664157 -8.77694614504e-05 0)
(0.00114730926845 -9.02048426154e-05 0)
(0.00119250655965 -9.18929131075e-05 0)
(0.00123819233068 -9.27132143471e-05 0)
(0.00128391853626 -9.25586358001e-05 0)
(0.00132919280593 -9.13407220757e-05 0)
(0.0013734880108 -8.89930599738e-05 0)
(0.00141625296562 -8.54725555026e-05 0)
(0.00145692344914 -8.07592453531e-05 0)
(0.0014949331536 -7.48558626054e-05 0)
(0.00152972469178 -6.77882154337e-05 0)
(0.00156076103322 -5.96067948984e-05 0)
(0.00158753773846 -5.03898963618e-05 0)
(0.00160959660846 -4.02489492561e-05 0)
(0.00162654178136 -2.93355806368e-05 0)
(0.00163805853787 -1.78461858229e-05 0)
(0.00164393243883 -6.01766475032e-06 0)
(0.00164406407906 5.8880045942e-06 0)
(0.00163847528907 1.76061921574e-05 0)
(0.0016273052926 2.88925815917e-05 0)
(0.00161079778138 3.95415535468e-05 0)
(0.0015892817822 4.93955393517e-05 0)
(0.00156315077032 5.83433909174e-05 0)
(0.00153284430814 6.63110358209e-05 0)
(0.00149883407854 7.32506747172e-05 0)
(0.00146161369796 7.91326249499e-05 0)
(0.00142169091334 8.39405178398e-05 0)
(0.00137958102713 8.76695384614e-05 0)
(0.00133580048251 9.03275678758e-05 0)
(0.00129085956627 9.19384655162e-05 0)
(0.00124525368125 9.25456968492e-05 0)
(0.00119945350533 9.22143159682e-05 0)
(0.00115389505857 9.10301486863e-05 0)
(0.00110897091177 8.90961794658e-05 0)
(0.0010650235395 8.65269708597e-05 0)
(0.00102234137418 8.34422482778e-05 0)
(0.000981157657871 7.99606895697e-05 0)
(0.000941651824753 7.6194664342e-05 0)
(0.000903952919885 7.22463238071e-05 0)
(0.00086814446155 6.82051395726e-05 0)
(0.000834270160338 6.41467712614e-05 0)
(0.000802339981539 6.01330169837e-05 0)
(0.000772336145486 5.6212554182e-05 0)
(0.00074421877635 5.24221886024e-05 0)
(0.000717931016281 4.87883718416e-05 0)
(0.000693403509636 4.53288037812e-05 0)
(0.000670558228569 4.20539916983e-05 0)
(0.000649311657677 3.89686858762e-05 0)
(0.000629577384764 3.60731489996e-05 0)
(0.000611268160932 3.33642437118e-05 0)
(0.000594297499737 3.08363406123e-05 0)
(0.000578580885112 2.84820598601e-05 0)
(0.0005640366537 2.62928651366e-05 0)
(0.000550586610785 2.42595308797e-05 0)
(0.00053815643163 2.23725035309e-05 0)
(0.000526675892356 2.06221761732e-05 0)
(0.000516078967206 1.8999093868e-05 0)
(0.000506303822274 1.74941048144e-05 0)
(0.000497292729807 1.60984702634e-05 0)
(0.000488991921866 1.48039442356e-05 0)
(0.00048135139759 1.36028324304e-05 0)
(0.000474324694376 1.248803847e-05 0)
(0.000467868629871 1.14531046435e-05 0)
(0.000461943018815 1.04922537485e-05 0)
(0.000456510366297 9.60043829417e-06 0)
(0.000451535536975 8.77340334834e-06 0)
(0.000446985398325 8.00776946268e-06 0)
(0.000442828435233 7.30114241836e-06 0)
(0.000439034333662 6.65225658733e-06 0)
(0.000435573533467 6.06115812581e-06 0)
(0.000432416756122 5.52943176485e-06 0)
(0.000429534524405 5.0604685503e-06 0)
(0.00042689671178 4.65975665527e-06 0)
(0.000424472195356 4.33514348201e-06 0)
(0.000422228746682 4.09694259909e-06 0)
(0.000420133390425 3.95759427048e-06 0)
(0.000418153596873 3.93021719038e-06 0)
(0.000416259813477 4.02453148929e-06 0)
(0.000414429679137 4.23658262544e-06 0)
(0.000412652385675 4.52424832209e-06 0)
(0.000410922894156 4.75607997558e-06 0)
(0.00121697072498 0.000182399372746 0)
(0.00124927215629 0.000357661517878 0)
(0.00126614479983 0.000405982933615 0)
(0.00125676993273 0.000392189749211 0)
(0.00122691663165 0.000354411421132 0)
(0.0011848865144 0.0003105143047 0)
(0.00113722008229 0.000267999172494 0)
(0.00108828372456 0.000229623265184 0)
(0.00104075744303 0.000196063312429 0)
(0.000996166709459 0.00016713234155 0)
(0.000955291166948 0.000142327492261 0)
(0.000918447180269 0.000121071060614 0)
(0.000885674221317 0.000102810922932 0)
(0.000856854530488 8.70569364738e-05 0)
(0.000831788405938 7.3388893952e-05 0)
(0.000810240664699 6.1452592889e-05 0)
(0.000791968657601 5.09516581218e-05 0)
(0.000776738622091 4.16385375905e-05 0)
(0.000764334747007 3.33060988386e-05 0)
(0.00075456374359 2.57803251538e-05 0)
(0.000747256694504 1.8914193105e-05 0)
(0.000742269295961 1.25826406721e-05 0)
(0.000739481188365 6.67847765195e-06 0)
(0.000738794803103 1.10908465934e-06 0)
(0.000740133982226 -4.20623753297e-06 0)
(0.000743442515203 -9.3383657227e-06 0)
(0.000748682677679 -1.43500351117e-05 0)
(0.000755833809033 -1.92971444764e-05 0)
(0.000764890925584 -2.42297324297e-05 0)
(0.00077586335294 -2.9192666304e-05 0)
(0.000788773346013 -3.42260647785e-05 0)
(0.000803654652867 -3.93654632693e-05 0)
(0.000820550968258 -4.46417209671e-05 0)
(0.000839514213582 -5.00806604072e-05 0)
(0.00086060257145 -5.57024249439e-05 0)
(0.00088387819567 -6.15205373689e-05 0)
(0.000909404511733 -6.75406454964e-05 0)
(0.00093724302034 -7.3758949864e-05 0)
(0.00096744951908 -8.01603272297e-05 0)
(0.00100006966803 -8.67161942405e-05 0)
(0.00103513384726 -9.33822011477e-05 0)
(0.0010726512928 -0.000100095907404 0)
(0.00111260355646 -0.000106774668053 0)
(0.00115493741908 -0.000113314045698 0)
(0.0011995574967 -0.0001195871432 0)
(0.00124631891166 -0.000125445302943 0)
(0.0012950205437 -0.000130720605614 0)
(0.00134539950526 -0.000135230486579 0)
(0.00139712756413 -0.000138784540222 0)
(0.00144981021871 -0.000141193198071 0)
(0.00150298897191 -0.000142277490624 0)
(0.00155614702105 -0.000141878652011 0)
(0.00160871810342 -0.000139866096837 0)
(0.0016600977111 -0.000136142537876 0)
(0.0017096555271 -0.000130645889043 0)
(0.00175674800597 -0.000123348914127 0)
(0.00180073061649 -0.000114258546683 0)
(0.00184097000486 -0.000103416492605 0)
(0.00187685656565 -9.09014505424e-05 0)
(0.00190781764574 -7.68330514063e-05 0)
(0.00193333196161 -6.13789989102e-05 0)
(0.00195294702273 -4.4765775897e-05 0)
(0.00196630087947 -2.72866052776e-05 0)
(0.00197314547321 -9.2957305207e-06 0)
(0.00197336493347 8.81499070873e-06 0)
(0.00196698316343 2.66497965635e-05 0)
(0.00195415918888 4.38429849751e-05 0)
(0.00193517161474 6.00862753629e-05 0)
(0.00191039553545 7.51429371593e-05 0)
(0.00188027766622 8.8844916355e-05 0)
(0.00184531547881 0.00010107820376 0)
(0.00180604234273 0.000111766919477 0)
(0.00176301704094 0.000120862114948 0)
(0.00171681558668 0.000128335326397 0)
(0.00166802419686 0.000134176073923 0)
(0.00161723235574 0.000138393494433 0)
(0.00156502464617 0.000141021248377 0)
(0.00151197059757 0.000142122936984 0)
(0.00145861300601 0.000141794936548 0)
(0.00140545610944 0.000140164966584 0)
(0.00135295519176 0.000137386521233 0)
(0.00130150880626 0.000133630480503 0)
(0.00125145421129 0.000129075589777 0)
(0.00120306605508 0.000123899307761 0)
(0.00115655794125 0.000118270075966 0)
(0.00111208627113 0.000112341565336 0)
(0.0010697556744 0.000106249026324 0)
(0.0010296253664 0.000100107561897 0)
(0.000991715866604 9.40119680552e-05 0)
(0.000956015640414 8.80377234863e-05 0)
(0.000922487356086 8.22427260832e-05 0)
(0.000891073564383 7.66694348885e-05 0)
(0.000861701701643 7.13471546343e-05 0)
(0.000834288386314 6.62942778983e-05 0)
(0.00080874302689 6.15203672276e-05 0)
(0.000784970789298 5.70280124332e-05 0)
(0.000762874988513 5.28144366958e-05 0)
(0.000742358976138 4.8872850994e-05 0)
(0.000723327596094 4.51935723827e-05 0)
(0.000705688276854 4.17649303498e-05 0)
(0.000689351822526 3.85739891983e-05 0)
(0.000674232957854 3.56071148347e-05 0)
(0.000660250674648 3.28504128878e-05 0)
(0.000647328419828 3.02900625825e-05 0)
(0.000635394158422 2.79125679327e-05 0)
(0.000624380338702 2.57049449255e-05 0)
(0.000614223781189 2.36548607321e-05 0)
(0.000604865508523 2.17507386633e-05 0)
(0.000596250529079 1.9981840704e-05 0)
(0.000588327583784 1.83383379505e-05 0)
(0.000581048862667 1.68113781786e-05 0)
(0.00057436969535 1.53931589666e-05 0)
(0.000568248217939 1.40770142519e-05 0)
(0.000562645017739 1.28575216975e-05 0)
(0.000557522757053 1.17306375637e-05 0)
(0.000552845778474 1.06938643778e-05 0)
(0.000548579697102 9.74645374191e-06 0)
(0.000544690990941 8.88964041574e-06 0)
(0.000541146610752 8.12689135268e-06 0)
(0.000537913646682 7.46412873915e-06 0)
(0.000534959113242 6.90983794792e-06 0)
(0.000532249948175 6.4748768923e-06 0)
(0.000529753361234 6.17161635483e-06 0)
(0.000527437694706 6.01166634879e-06 0)
(0.000525273878566 6.0006908605e-06 0)
(0.000523237054498 6.12738845784e-06 0)
(0.000521305974654 6.34181190907e-06 0)
(0.000519453328007 6.52060915146e-06 0)
(0.0012129051705 0.000152523456259 0)
(0.00124199982637 0.000326141325833 0)
(0.00126647297398 0.000396157334847 0)
(0.00127336883038 0.000404494359608 0)
(0.00126292843588 0.000382400507073 0)
(0.00123977794607 0.000347705827034 0)
(0.00120874117796 0.000309510851784 0)
(0.00117363995917 0.000272149163816 0)
(0.00113720132811 0.000237502327704 0)
(0.00110126006142 0.00020622532778 0)
(0.00106699236865 0.000178377742532 0)
(0.00103511109988 0.000153746067102 0)
(0.00100601290338 0.000132007073426 0)
(0.000979884224279 0.000112809157816 0)
(0.000956775794815 9.58112290219e-05 0)
(0.000936654147049 8.06996498264e-05 0)
(0.00091943678592 6.71939730993e-05 0)
(0.000905015916632 5.50471318383e-05 0)
(0.000893274236037 4.4043065459e-05 0)
(0.000884095264801 3.39933391316e-05 0)
(0.000877369950063 2.47335496163e-05 0)
(0.000873000737449 1.61199026285e-05 0)
(0.00087090393803 8.0261305624e-06 0)
(0.000871010955021 3.40808268726e-07 0)
(0.000873268749924 -7.03492670703e-06 0)
(0.000877639801515 -1.41892526658e-05 0)
(0.00088410173479 -2.12012357461e-05 0)
(0.000892646722817 -2.81420556416e-05 0)
(0.000903280712565 -3.50759209273e-05 0)
(0.00091602250379 -4.20606910874e-05 0)
(0.000930902682762 -4.91482085007e-05 0)
(0.000947962392792 -5.63843350895e-05 0)
(0.000967251907236 -6.38086802853e-05 0)
(0.000988828956782 -7.14540003363e-05 0)
(0.00101275675071 -7.93452446464e-05 0)
(0.00103910162143 -8.7498224233e-05 0)
(0.00106793021348 -9.59178823835e-05 0)
(0.00109930613302 -0.000104596160874 0)
(0.00113328597414 -0.000113509479914 0)
(0.00116991464607 -0.00012261589015 0)
(0.00120921994459 -0.000131852014252 0)
(0.00125120634663 -0.000141129976168 0)
(0.00129584806411 -0.000150334617149 0)
(0.00134308147807 -0.000159321411677 0)
(0.00139279718963 -0.000167915606008 0)
(0.00144483207064 -0.000175913176255 0)
(0.00149896186287 -0.000183084196823 0)
(0.00155489503632 -0.000189179070546 0)
(0.00161226873378 -0.000193937752701 0)
(0.0016706476421 -0.000197101588905 0)
(0.0017295264795 -0.000198426731703 0)
(0.00178833642298 -0.000197697446478 0)
(0.00184645521747 -0.00019473722427 0)
(0.00190322000767 -0.000189415855332 0)
(0.00195794138679 -0.000181651814571 0)
(0.0020099171911 -0.000171411318578 0)
(0.00205844543236 -0.000158707037699 0)
(0.00210283691499 -0.000143598911747 0)
(0.00214242830753 -0.00012619701846 0)
(0.00217659558755 -0.000106665870792 0)
(0.00220476813389 -8.52330611376e-05 0)
(0.00222644649075 -6.22051420399e-05 0)
(0.00224122725984 -3.79818650194e-05 0)
(0.00224883207217 -1.30498646335e-05 0)
(0.00224913064067 1.20511213457e-05 0)
(0.00224214992278 3.67761899509e-05 0)
(0.00222806831644 6.0622214627e-05 0)
(0.00220719685762 8.31661228113e-05 0)
(0.00217995100595 0.000104085065123 0)
(0.0021468207177 0.000123150990846 0)
(0.00210834715246 0.000140207928504 0)
(0.00206510801754 0.000155149516098 0)
(0.00201770792252 0.00016790497208 0)
(0.00196677062568 0.000178431286304 0)
(0.00191293232682 0.000186709878621 0)
(0.00185683503509 0.000192748907997 0)
(0.00179911816043 0.000196590512383 0)
(0.00174040720023 0.000198318780858 0)
(0.00168130020036 0.000198063786537 0)
(0.00162235393305 0.000195999383935 0)
(0.00156407184566 0.000192335211369 0)
(0.00150689519854 0.000187304922738 0)
(0.00145119799905 0.000181153037963 0)
(0.00139728566596 0.000174122440305 0)
(0.00134539691163 0.000166443898102 0)
(0.00129570809773 0.000158328308604 0)
(0.00124833926217 0.00014996179156 0)
(0.00120336107614 0.000141503361751 0)
(0.00116080212068 0.000133084689479 0)
(0.00112065602442 0.000124811385622 0)
(0.00108288815213 0.000116765276968 0)
(0.00104744165744 0.000109007222364 0)
(0.00101424280985 0.000101580125342 0)
(0.000983205575298 9.45119011765e-05 0)
(0.000954235475628 8.78182438176e-05 0)
(0.00092723278041 8.15051065414e-05 0)