/*--------------------------------*- C++ -*----------------------------------*\
  =========                 |
  \\      /  F ield         | OpenFOAM: The Open Source CFD Toolbox
   \\    /   O peration     | Website:  https://openfoam.org
    \\  /    A nd           | Version:  7
     \\/     M anipulation  |
\*---------------------------------------------------------------------------*/
FoamFile
{
    version     2.0;
    format      ascii;
    class       volScalarField;
    location    "1740";
    object      Ci;
}
// * * * * * * * * * * * * * * * * * * * * * * * * * * * * * * * * * * * * * //

dimensions      [0 -3 0 0 1 0 0];

internalField   nonuniform List<scalar> 
8192
(
9.99999998409
10.0000000555
10.0000001602
10.0000002985
10.0000004776
10.0000006913
10.0000009309
10.0000011888
10.0000014592
10.0000017374
10.00000202
10.0000023038
10.0000025864
10.0000028652
10.0000031377
10.0000034016
10.0000036547
10.0000038945
10.000004119
10.0000043259
10.0000045133
10.000004679
10.0000048215
10.0000049386
10.000005029
10.0000050907
10.0000051227
10.0000051231
10.0000050912
10.0000050253
10.0000049249
10.0000047886
10.0000046163
10.0000044068
10.0000041605
10.0000038765
10.000003556
10.0000031984
10.0000028059
10.0000023785
10.0000019193
10.0000014292
10.0000009123
10.0000003701
9.99999980815
9.99999922841
9.99999863723
9.99999803697
9.99999743478
9.99999683324
9.99999624047
9.99999565975
9.99999510098
9.99999456918
9.99999407718
9.99999363261
9.9999932514
9.99999294283
9.99999272342
9.99999260012
9.99999258509
9.99999267836
9.99999288479
9.99999319753
9.99999361703
9.99999413442
9.99999474991
9.9999954543
9.99999624567
9.99999711063
9.99999804134
9.99999901888
10.0000000311
10.0000010574
10.0000020859
10.0000030986
10.0000040868
10.0000050369
10.000005944
10.0000067992
10.0000076011
10.0000083445
10.0000090309
10.0000096579
10.0000102288
10.0000107432
10.0000112054
10.0000116162
10.0000119806
10.0000122996
10.0000125784
10.0000128184
10.0000130243
10.0000131974
10.0000133424
10.0000134605
10.0000135561
10.0000136302
10.0000136864
10.0000137256
10.000013751
10.0000137631
10.0000137649
10.0000137567
10.000013741
10.000013718
10.00001369
10.0000136568
10.0000136206
10.000013581
10.0000135397
10.0000134963
10.0000134522
10.0000134066
10.0000133607
10.0000133135
10.0000132658
10.0000132159
10.0000131642
10.0000131085
10.0000130481
10.0000129801
10.0000129034
10.0000128151
10.0000127165
10.0000126111
10.0000125113
10.0000124408
10.0000000062
10.0000000949
10.0000001949
10.0000003154
10.0000004656
10.0000006459
10.0000008532
10.0000010829
10.00000133
10.0000015897
10.0000018578
10.0000021306
10.0000024051
10.0000026781
10.0000029472
10.0000032096
10.0000034631
10.0000037051
10.0000039335
10.0000041461
10.000004341
10.0000045159
10.0000046694
10.0000047993
10.0000049045
10.0000049829
10.0000050336
10.0000050548
10.0000050458
10.0000050051
10.0000049323
10.0000048259
10.000004686
10.0000045114
10.0000043026
10.0000040588
10.0000037811
10.000003469
10.0000031243
10.0000027472
10.0000023404
10.0000019045
10.0000014433
10.000000958
10.0000004531
9.99999993034
9.99999939501
9.99999884906
9.99999829831
9.99999774496
9.99999719567
9.99999665332
9.99999612612
9.99999561854
9.99999514129
9.99999470114
9.99999431128
9.99999397996
9.99999372081
9.99999354046
9.99999344927
9.99999344902
9.99999354479
9.99999373362
9.99999401736
9.99999439147
9.99999485711
9.9999954088
9.99999604535
9.99999675744
9.99999753883
9.99999837541
9.99999925698
10.0000001673
10.0000010955
10.0000020261
10.00000295
10.0000038542
10.0000047322
10.0000055743
10.0000063767
10.0000071329
10.000007842
10.0000085001
10.0000091084
10.0000096651
10.000010173
10.0000106319
10.0000110453
10.0000114141
10.0000117421
10.0000120308
10.000012284
10.0000125032
10.0000126925
10.0000128535
10.0000129901
10.0000131036
10.0000131973
10.0000132722
10.0000133314
10.0000133756
10.0000134074
10.0000134275
10.0000134382
10.00001344
10.0000134349
10.0000134232
10.0000134067
10.0000133854
10.0000133608
10.0000133327
10.0000133025
10.0000132697
10.0000132352
10.0000131984
10.0000131599
10.0000131185
10.0000130743
10.0000130256
10.0000129716
10.0000129097
10.0000128384
10.0000127551
10.0000126596
10.0000125563
10.0000124565
10.0000123743
10.0000000077
10.0000001038
10.0000002
10.0000003038
10.0000004252
10.0000005669
10.0000007296
10.0000009123
10.0000011134
10.0000013302
10.0000015601
10.0000017997
10.0000020463
10.0000022967
10.0000025482
10.0000027978
10.0000030433
10.0000032819
10.0000035115
10.0000037299
10.000003935
10.0000041249
10.0000042979
10.0000044521
10.0000045863
10.0000046986
10.0000047883
10.0000048536
10.0000048941
10.0000049081
10.0000048957
10.0000048553
10.0000047871
10.0000046901
10.0000045648
10.0000044101
10.0000042273
10.0000040155
10.0000037765
10.0000035096
10.0000032173
10.0000028993
10.0000025588
10.0000021954
10.0000018134
10.0000014124
10.0000009969
10.0000005668
10.000000127
9.9999996772
9.9999992231
9.99999876454
9.99999830858
9.99999785606
9.99999741617
9.99999699149
9.99999659363
9.99999622667
9.99999590345
9.99999562768
9.99999541085
9.99999525397
9.99999516544
9.99999514325
9.99999519367
9.99999531368
9.99999550908
9.9999957765
9.99999612014
9.99999653414
9.99999701882
9.99999756469
9.9999981684
9.99999881819
9.99999950878
10.0000002278
10.0000009694
10.0000017216
10.0000024788
10.0000032303
10.0000039714
10.0000046932
10.0000053925
10.0000060625
10.0000067018
10.0000073055
10.0000078739
10.000008404
10.0000088974
10.0000093525
10.0000097718
10.0000101548
10.0000105043
10.0000108204
10.0000111063
10.0000113624
10.0000115921
10.0000117958
10.0000119768
10.0000121356
10.0000122751
10.0000123958
10.0000125003
10.0000125892
10.0000126648
10.0000127274
10.0000127792
10.0000128204
10.0000128531
10.000012877
10.0000128941
10.000012904
10.0000129085
10.0000129068
10.0000129005
10.0000128886
10.0000128725
10.0000128507
10.0000128241
10.000012791
10.0000127513
10.0000127026
10.0000126439
10.0000125727
10.0000124873
10.0000123919
10.0000122943
10.0000121933
10.0000000063
10.0000001084
10.0000002043
10.0000003023
10.0000004106
10.0000005315
10.0000006663
10.0000008153
10.0000009785
10.0000011553
10.0000013447
10.0000015449
10.0000017542
10.0000019705
10.0000021916
10.0000024152
10.0000026391
10.000002861
10.000003079
10.0000032908
10.0000034947
10.0000036888
10.0000038714
10.0000040409
10.000004196
10.0000043353
10.0000044577
10.000004562
10.0000046473
10.0000047127
10.0000047576
10.0000047812
10.0000047831
10.0000047628
10.0000047199
10.0000046542
10.0000045656
10.0000044539
10.0000043193
10.0000041617
10.0000039818
10.0000037793
10.0000035555
10.0000033101
10.0000030449
10.0000027597
10.0000024565
10.0000021352
10.0000017982
10.0000014456
10.0000010802
10.0000007026
10.0000003166
9.99999992388
9.99999952976
9.9999991378
9.9999987553
9.99999838759
9.9999980432
9.99999772781
9.99999744908
9.9999972108
9.99999701804
9.999996872
9.99999677585
9.99999672999
9.99999673762
9.99999679928
9.99999691769
9.99999709184
9.99999732211
9.99999760502
9.99999793887
9.99999831878
9.99999874217
9.99999920353
9.99999969971
10.0000002247
10.0000007746
10.000001343
10.0000019256
10.0000025159
10.0000031096
10.0000037005
10.0000042851
10.000004858
10.0000054164
10.0000059565
10.0000064764
10.0000069733
10.0000074467
10.0000078947
10.0000083176
10.0000087143
10.0000090858
10.0000094315
10.0000097529
10.0000100498
10.0000103239
10.0000105754
10.0000108058
10.0000110158
10.0000112067
10.0000113793
10.0000115349
10.0000116741
10.0000117983
10.0000119081
10.0000120046
10.0000120884
10.0000121606
10.0000122214
10.000012272
10.0000123122
10.0000123431
10.0000123646
10.0000123772
10.0000123807
10.0000123754
10.0000123606
10.000012336
10.0000123004
10.0000122524
10.0000121911
10.0000121146
10.0000120277
10.0000119345
10.0000118214
10.0000000082
10.000000117
10.0000002183
10.0000003162
10.0000004195
10.0000005304
10.0000006501
10.0000007795
10.0000009188
10.0000010683
10.0000012276
10.0000013961
10.0000015729
10.0000017567
10.0000019464
10.0000021403
10.0000023368
10.0000025342
10.000002731
10.0000029253
10.0000031157
10.0000033005
10.0000034783
10.0000036478
10.0000038077
10.0000039568
10.000004094
10.0000042184
10.0000043288
10.0000044251
10.0000045054
10.0000045705
10.000004618
10.0000046494
10.0000046618
10.0000046572
10.0000046325
10.0000045896
10.000004526
10.0000044428
10.0000043385
10.0000042134
10.0000040669
10.0000038988
10.0000037095
10.0000034984
10.0000032667
10.0000030141
10.0000027421
10.000002451
10.0000021429
10.0000018186
10.0000014815
10.0000011332
10.0000007787
10.0000004213
10.0000000676
9.99999972287
9.99999939484
9.99999908901
9.99999881236
9.99999856834
9.99999836104
9.99999819091
9.99999805967
9.99999796656
9.99999791314
9.99999789895
9.99999792543
9.99999799124
9.99999809629
9.99999823785
9.99999841495
9.99999862475
9.99999886654
9.99999913804
9.99999943884
9.99999976681
10.0000001212
10.0000004996
10.0000009006
10.0000013211
10.0000017588
10.0000022102
10.0000026724
10.0000031417
10.000003615
10.0000040886
10.0000045599
10.0000050253
10.0000054829
10.0000059298
10.0000063644
10.0000067846
10.0000071894
10.0000075772
10.0000079475
10.0000082994
10.0000086328
10.000008947
10.0000092423
10.0000095185
10.0000097761
10.000010015
10.0000102358
10.0000104388
10.0000106246
10.0000107935
10.0000109462
10.0000110828
10.0000112043
10.0000113108
10.000011403
10.000011481
10.0000115455
10.0000115966
10.0000116347
10.0000116598
10.0000116723
10.0000116718
10.0000116582
10.0000116311
10.0000115887
10.0000115325
10.0000114567
10.0000113749
10.0000112738
10.0000111767
10.0000000085
10.0000001233
10.0000002289
10.0000003304
10.0000004346
10.0000005429
10.0000006563
10.0000007757
10.0000009017
10.0000010347
10.0000011748
10.0000013218
10.0000014754
10.0000016348
10.0000017993
10.000001968
10.0000021398
10.0000023134
10.0000024878
10.0000026618
10.0000028339
10.0000030032
10.0000031682
10.0000033283
10.0000034817
10.0000036284
10.000003766
10.0000038957
10.0000040136
10.0000041231
10.000004218
10.0000043044
10.000004373
10.0000044332
10.0000044726
10.0000045032
10.0000045104
10.0000045071
10.0000044793
10.0000044376
10.0000043714
10.0000042872
10.0000041792
10.0000040498
10.0000038971
10.0000037214
10.0000035232
10.0000033024
10.0000030605
10.0000027981
10.0000025174
10.0000022197
10.0000019081
10.0000015851
10.0000012548
10.0000009214
10.0000005907
10.0000002689
9.99999996316
9.99999968024
9.99999942654
9.99999920677
9.99999902379
9.99999887842
9.99999877012
9.99999869761
9.99999865969
9.99999865505
9.99999868245
9.9999987396
9.99999882402
9.99999893229
9.9999990619
9.99999921011
9.99999937585
9.99999955777
9.9999997562
9.99999997069
10.0000002022
10.0000004504
10.0000007164
10.0000009996
10.0000013004
10.0000016178
10.0000019513
10.0000022991
10.00000266
10.0000030316
10.0000034121
10.0000037989
10.0000041899
10.0000045825
10.0000049746
10.0000053636
10.0000057477
10.0000061246
10.0000064928
10.0000068504
10.0000071962
10.0000075287
10.0000078471
10.0000081503
10.0000084378
10.0000087089
10.0000089632
10.0000092005
10.0000094205
10.0000096232
10.0000098086
10.0000099766
10.0000101275
10.0000102612
10.0000103781
10.0000104783
10.0000105621
10.0000106295
10.0000106809
10.0000107165
10.0000107362
10.0000107405
10.0000107285
10.0000107019
10.000010656
10.000010599
10.0000105136
10.0000104353
10.0000103053
10.0000102454
10.00000001
10.0000001294
10.0000002406
10.0000003457
10.0000004516
10.0000005595
10.0000006702
10.0000007844
10.0000009028
10.0000010259
10.0000011539
10.0000012869
10.0000014247
10.000001567
10.0000017133
10.0000018631
10.0000020154
10.0000021698
10.000002325
10.0000024806
10.0000026351
10.0000027884
10.0000029385
10.0000030861
10.0000032279
10.0000033668
10.0000034965
10.000003624
10.0000037376
10.0000038515
10.000003945
10.000004043
10.0000041122
10.0000041914
10.0000042324
10.0000042883
10.0000042983
10.0000043239
10.0000043008
10.0000042878
10.0000042297
10.0000041707
10.0000040745
10.0000039655
10.0000038272
10.0000036686
10.0000034857
10.0000032808
10.0000030547
10.0000028087
10.0000025448
10.0000022648
10.0000019713
10.0000016671
10.0000013557
10.0000010414
10.0000007295
10.0000004262
10.0000001388
9.99999987464
9.99999964068
9.99999944234
9.99999928293
9.99999916337
9.99999908285
9.9999990394
9.99999903082
9.99999905473
9.99999910856
9.99999918891
9.99999929191
9.9999994132
9.99999954899
9.99999969595
9.9999998519
10.0000000153
10.0000001855
10.0000003624
10.0000005464
10.000000738
10.0000009384
10.0000011483
10.000001369
10.0000016012
10.0000018456
10.0000021025
10.000002372
10.0000026536
10.0000029466
10.0000032501
10.0000035626
10.0000038828
10.0000042086
10.0000045384
10.0000048702
10.0000052018
10.0000055314
10.000005857
10.0000061767
10.0000064888
10.0000067917
10.000007084
10.0000073642
10.0000076312
10.0000078841
10.000008122
10.0000083441
10.0000085499
10.0000087389
10.0000089106
10.0000090649
10.0000092015
10.0000093203
10.0000094214
10.0000095045
10.00000957
10.0000096177
10.0000096482
10.0000096607
10.000009657
10.0000096342
10.0000095978
10.000009537
10.000009472
10.0000093643
10.0000092888
10.0000091121
10.0000090966
10.0000000096
10.0000001322
10.0000002465
10.0000003557
10.000000465
10.0000005749
10.0000006857
10.0000007981
10.0000009128
10.0000010304
10.0000011513
10.0000012755
10.0000014032
10.0000015341
10.000001668
10.0000018046
10.0000019431
10.0000020833
10.0000022241
10.0000023658
10.0000025061
10.0000026467
10.0000027833
10.0000029208
10.0000030502
10.0000031828
10.0000033006
10.0000034277
10.0000035286
10.0000036505
10.0000037277
10.0000038451
10.0000038914
10.0000040038
10.0000040127
10.0000041161
10.000004085
10.0000041682
10.0000041008
10.000004146
10.0000040501
10.000004039
10.0000039204
10.0000038429
10.0000036996
10.000003559
10.0000033831
10.0000031909
10.0000029769
10.0000027438
10.0000024938
10.0000022278
10.0000019485
10.0000016579
10.0000013591
10.0000010559
10.0000007532
10.0000004575
10.0000001761
9.99999991798
9.99999969099
9.99999950254
9.99999935655
9.99999925512
9.99999919674
9.99999917939
9.99999919935
9.99999925356
9.99999933783
9.99999944783
9.99999957824
9.99999972386
9.99999988021
10.0000000435
10.0000002114
10.000000382
10.0000005545
10.0000007283
10.0000009038
10.0000010807
10.00000126
10.0000014424
10.0000016292
10.0000018213
10.0000020201
10.0000022261
10.0000024405
10.0000026636
10.0000028957
10.0000031367
10.0000033864
10.0000036439
10.0000039085
10.0000041787
10.0000044534
10.0000047308
10.0000050093
10.0000052871
10.0000055626
10.0000058337
10.000006099
10.0000063566
10.0000066052
10.0000068432
10.0000070694
10.0000072826
10.0000074818
10.0000076661
10.0000078347
10.0000079869
10.0000081223
10.0000082403
10.0000083408
10.0000084234
10.000008488
10.0000085348
10.0000085632
10.0000085743
10.0000085666
10.0000085433
10.0000084986
10.0000084438
10.0000083583
10.0000082797
10.00000814
10.0000080652
10.0000078337
10.0000078559
10.0000000107
10.0000001363
10.0000002545
10.0000003666
10.0000004782
10.0000005896
10.0000007009
10.0000008128
10.0000009256
10.0000010401
10.0000011565
10.0000012753
10.0000013963
10.0000015197
10.000001645
10.0000017725
10.0000019012
10.0000020316
10.0000021616
10.0000022934
10.0000024225
10.0000025545
10.0000026793
10.0000028108
10.000002927
10.0000030591
10.00000316
10.000003296
10.0000033718
10.0000035186
10.0000035547
10.0000037226
10.000003701
10.0000039009
10.000003804
10.0000040403
10.0000038606
10.0000041201
10.0000038716
10.0000041157
10.0000038369
10.000004009
10.0000037466
10.0000038004
10.0000035786
10.0000035078
10.0000033115
10.0000031481
10.0000029429
10.0000027253
10.0000024899
10.0000022378
10.000001972
10.000001694
10.0000014059
10.0000011109
10.0000008131
10.0000005192
10.0000002369
9.99999997588
9.99999974563
9.99999955509
9.9999994099
9.99999931299
9.99999926351
9.99999925889
9.99999929475
9.99999936657
9.99999946903
9.99999959675
9.99999974376
9.99999990461
10.0000000747
10.0000002502
10.0000004291
10.0000006102
10.0000007926
10.0000009757
10.0000011592
10.0000013427
10.0000015263
10.0000017098
10.0000018937
10.0000020781
10.0000022639
10.0000024511
10.0000026418
10.000002837
10.000003037
10.0000032424
10.0000034531
10.0000036692
10.0000038902
10.0000041155
10.000004344
10.0000045749
10.0000048068
10.0000050383
10.000005268
10.0000054943
10.0000057156
10.0000059306
10.0000061376
10.0000063354
10.0000065225
10.0000066979
10.0000068603
10.0000070089
10.0000071428
10.0000072612
10.0000073636
10.0000074494
10.0000075182
10.0000075699
10.0000076039
10.0000076209
10.0000076196
10.0000076022
10.0000075653
10.0000075152
10.0000074414
10.0000073631
10.000007247
10.0000071517
10.0000069759
10.0000068985
10.0000066155
10.0000066606
10.0000000103
10.0000001381
10.0000002586
10.0000003738
10.0000004885
10.0000006023
10.0000007152
10.0000008277
10.0000009401
10.0000010532
10.0000011673
10.0000012828
10.0000013997
10.0000015183
10.000001638
10.0000017597
10.0000018814
10.0000020055
10.0000021277
10.0000022536
10.0000023736
10.0000025015
10.0000026154
10.0000027471
10.000002848
10.000002989
10.000003065
10.0000032269
10.0000032576
10.000003462
10.0000034142
10.0000036955
10.0000035217
10.0000039254
10.0000035696
10.000004139
10.000003559
10.0000043048
10.0000035094
10.0000043707
10.0000034554
10.0000042826
10.0000034184
10.0000040242
10.0000033715
10.0000036424
10.0000032381
10.0000032124
10.0000029583
10.000002772
10.0000025443
10.0000023001
10.0000020448
10.0000017726
10.0000014882
10.0000011934
10.000000892
10.0000005903
10.000000296
10.000000021
9.99999977644
9.99999957496
9.99999942414
9.99999932945
9.99999928955
9.99999930185
9.99999935939
9.99999945586
9.99999958297
9.99999973339
9.9999998997
10.0000000751
10.0000002553
10.0000004376
10.0000006211
10.0000008052
10.0000009903
10.0000011762
10.0000013631
10.0000015506
10.0000017387
10.0000019268
10.0000021151
10.0000023027
10.0000024899
10.0000026763
10.0000028619
10.0000030474
10.0000032323
10.0000034194
10.000003609
10.0000038009
10.000003995
10.0000041908
10.0000043878
10.0000045851
10.0000047818
10.0000049766
10.0000051685
10.0000053561
10.0000055382
10.0000057134
10.0000058805
10.0000060382
10.0000061854
10.000006321
10.000006444
10.0000065535
10.0000066488
10.0000067292
10.0000067941
10.0000068431
10.0000068758
10.0000068922
10.0000068916
10.000006875
10.0000068406
10.0000067918
10.0000067233
10.0000066448
10.0000065405
10.000006438
10.0000062914
10.0000061791
10.0000059699
10.0000058866
10.0000055635
10.0000056157
10.0000000112
10.0000001414
10.0000002649
10.0000003824
10.000000499
10.0000006146
10.0000007288
10.0000008421
10.0000009547
10.0000010673
10.0000011801
10.0000012938
10.000001408
10.0000015236
10.0000016395
10.0000017574
10.0000018742
10.0000019944
10.0000021104
10.0000022335
10.0000023456
10.0000024733
10.0000025759
10.0000027136
10.0000027959
10.0000029555
10.0000029968
10.0000032035
10.0000031652
10.0000034664
10.0000032805
10.0000037578
10.0000033149
10.0000040928
10.0000032406
10.0000044754
10.0000030476
10.0000048736
10.0000027745
10.0000051929
10.000002528
10.0000052791
10.000002449
10.000004996
10.0000025947
10.0000043608
10.0000028297
10.0000035965
10.0000028937
10.0000029448
10.0000026513
10.000002431
10.0000021944
10.0000019235
10.0000016465
10.0000013512
10.0000010432
10.000000729
10.0000004196
10.0000001243
9.99999985735
9.99999963506
9.99999947029
9.99999936861
9.99999932864
9.9999993456
9.9999994129
9.99999952265
9.9999996653
9.99999983166
10.0000000116
10.0000001976
10.0000003851
10.0000005718
10.0000007574
10.0000009424
10.0000011278
10.0000013145
10.0000015032
10.0000016939
10.0000018866
10.000002081
10.0000022762
10.0000024717
10.0000026664
10.0000028599
10.0000030509
10.0000032398
10.0000034252
10.0000036085
10.000003788
10.0000039671
10.0000041457
10.0000043235
10.0000045001
10.0000046747
10.0000048465
10.0000050145
10.0000051777
10.0000053351
10.0000054856
10.0000056279
10.0000057611
10.0000058841
10.000005996
10.0000060958
10.0000061828
10.0000062562
10.0000063153
10.0000063599
10.0000063892
10.0000064032
10.0000064014
10.0000063842
10.0000063507
10.0000063024
10.0000062369
10.0000061589
10.0000060613
10.0000059569
10.0000058252
10.0000057013
10.0000055284
10.0000054011
10.0000051659
10.0000050751
10.0000047265
10.0000047739
10.0000000109
10.000000143
10.0000002686
10.0000003886
10.0000005077
10.0000006254
10.0000007415
10.0000008561
10.0000009695
10.0000010824
10.0000011949
10.0000013078
10.0000014206
10.0000015347
10.0000016481
10.0000017641
10.0000018774
10.0000019958
10.0000021072
10.0000022296
10.0000023353
10.0000024653
10.0000025579
10.0000027042
10.0000027686
10.0000029504
10.0000029562
10.0000032138
10.0000031008
10.0000035137
10.0000031676
10.0000038843
10.0000031024
10.0000043764
10.0000028323
10.0000050477
10.00000229
10.0000059213
10.0000014759
10.0000069046
10.0000005558
10.0000076994
9.99999991043
10.0000078289
9.99999998619
10.0000069505
10.0000008772
10.0000052969
10.0000020167
10.0000036728
10.000002592
10.0000026741
10.0000024024
10.0000021057
10.0000018575
10.0000015432
10.0000012178
10.0000008851
10.0000005446
10.0000002076
9.99999989915
9.99999965548
9.99999948323
9.99999936359
9.99999927692
9.99999922997
9.99999924442
9.99999933781
9.99999950681
9.99999973087
9.99999998091
10.000000233
10.0000004728
10.000000695
10.0000009009
10.0000010947
10.0000012816
10.0000014655
10.0000016498
10.0000018361
10.0000020256
10.0000022182
10.0000024133
10.00000261
10.000002807
10.0000030032
10.0000031977
10.0000033896
10.0000035781
10.0000037629
10.0000039428
10.0000041185
10.0000042886
10.000004456
10.0000046202
10.0000047803
10.0000049355
10.0000050849
10.0000052277
10.0000053627
10.0000054891
10.0000056059
10.0000057123
10.0000058074
10.0000058904
10.0000059607
10.0000060176
10.0000060607
10.0000060894
10.0000061036
10.0000061029
10.0000060872
10.0000060563
10.0000060107
10.0000059495
10.0000058749
10.0000057836
10.0000056818
10.0000055605
10.0000054355
10.0000052824
10.0000051421
10.0000049499
10.000004811
10.000004559
10.0000044608
10.0000041007
10.0000041374
10.0000000116
10.0000001459
10.0000002737
10.0000003956
10.0000005164
10.0000006358
10.0000007534
10.0000008693
10.0000009837
10.0000010973
10.0000012099
10.0000013228
10.0000014349
10.0000015483
10.0000016602
10.0000017751
10.0000018862
10.0000020037
10.0000021122
10.0000022342
10.0000023362
10.0000024674
10.0000025547
10.0000027055
10.0000027614
10.0000029543
10.0000029439
10.0000032272
10.0000030778
10.0000035518
10.0000031164
10.0000039827
10.0000029747
10.0000046181
10.0000025123
10.0000056112
10.0000015342
10.0000071469
9.9999998546
10.0000093231
9.99999748709
10.0000118814
9.99999495695
10.0000139293
9.99999345794
10.000014071
9.99999429464
10.0000114593
9.9999974711
10.0000071755
10.0000009322
10.0000037537
10.0000024564
10.0000023383
10.0000022072
10.0000017628
10.0000014807
10.0000011428
10.0000007262
10.0000003021
10.0000000196
9.99999987507
9.9999996064
9.99999892952
9.999997835
9.99999663956
9.99999577053
9.99999550575
9.99999587072
9.99999668062
9.99999768234
9.99999866119
9.99999949429
10.0000001453
10.0000006335
10.0000009994
10.0000012845
10.0000015216
10.0000017333
10.0000019344
10.0000021341
10.0000023375
10.0000025462
10.0000027596
10.0000029748
10.0000031887
10.000003398
10.0000036005
10.0000037945
10.0000039798
10.0000041561
10.0000043238
10.0000044836
10.0000046354
10.0000047812
10.0000049222
10.0000050575
10.0000051866
10.0000053082
10.0000054216
10.0000055257
10.0000056196
10.0000057025
10.0000057736
10.0000058323
10.0000058779
10.0000059099
10.0000059281
10.000005932
10.0000059216
10.0000058966
10.0000058573
10.0000058032
10.0000057353
10.0000056526
10.0000055574
10.0000054466
10.0000053268
10.0000051882
10.0000050481
10.0000048801
10.0000047282
10.0000045237
10.000004377
10.0000041165
10.0000040122
10.0000036513
10.0000036751
10.0000000115
10.0000001475
10.0000002773
10.0000004012
10.0000005239
10.0000006451
10.0000007643
10.0000008818
10.0000009974
10.0000011121
10.0000012254
10.0000013388
10.000001451
10.0000015644
10.0000016759
10.0000017904
10.0000019008
10.0000020175
10.0000021255
10.0000022463
10.0000023487
10.0000024777
10.0000025681
10.0000027136
10.0000027788
10.0000029591
10.0000029707
10.0000032259
10.0000031225
10.0000035402
10.0000031887
10.0000039598
10.0000030745
10.0000046071
10.0000025924
10.0000057217
10.0000014041
10.0000077148
9.99999899071
10.0000111372
9.99999479374
10.0000163701
9.99998875017
10.0000228505
9.99998226999
10.0000281078
9.99997881026
10.00002812
9.99998206758
10.0000207706
9.99999136854
10.0000101002
9.99999995844
10.0000034393
10.0000026307
10.0000017772
10.0000020483
10.0000013652
10.000000587
10.0000004595
10.000001111
10.0000006337
9.99999605872
9.99998611992
9.99997274755
9.9999601036
9.99995211216
9.99995063226
9.99995508687
9.99996330629
9.99997276836
9.99998151532
9.99998851474
9.99999354727
9.9999968858
9.99999897907
10.0000002546
10.0000010335
10.000001525
10.0000018505
10.0000020784
10.0000022486
10.0000023897
10.0000025238
10.0000026683
10.0000028334
10.000003023
10.0000032343
10.0000034608
10.000003694
10.0000039259
10.0000041499
10.0000043613
10.0000045572
10.0000047367
10.0000049001
10.0000050501
10.0000051868
10.0000053104
10.000005421
10.0000055188
10.0000056035
10.0000056749
10.0000057327
10.0000057767
10.0000058065
10.000005822
10.000005823
10.0000058094
10.0000057811
10.0000057384
10.0000056813
10.0000056101
10.0000055253
10.0000054266
10.0000053161
10.0000051912
10.0000050579
10.0000049075
10.0000047564
10.0000045792
10.0000044188
10.0000042084
10.000004055
10.0000037931
10.0000036816
10.0000033275
10.0000033346
10.000000012
10.0000001499
10.0000002814
10.0000004068
10.0000005309
10.0000006536
10.0000007743
10.0000008932
10.0000010101
10.000001126
10.0000012403
10.0000013544
10.0000014672
10.0000015809
10.0000016927
10.0000018069
10.0000019178
10.0000020335
10.000002143
10.0000022612
10.0000023678
10.0000024906
10.0000025914
10.0000027227
10.0000028119
10.0000029595
10.0000030248
10.0000032061
10.0000032195
10.000003475
10.0000033701
10.0000037998
10.0000034131
10.0000042686
10.0000031951
10.0000051012
10.0000023628
10.0000067985
10.000000176
10.0000103442
9.99999532415
10.0000172878
9.99998611173
10.0000290956
9.99997181581
10.0000449289
9.99995570866
10.0000583775
9.99994735485
10.0000579702
9.99995731161
10.0000381634
9.99998204226
10.0000130514
10.0000001575
10.0000022208
10.000003761
9.99999967967
10.0000005985
10.000005988
10.0000061681
9.99997951518
9.99990904608
9.99979953541
9.9996782471
9.99958054131
9.99953188474
9.99953927373
9.99959243281
9.9996717481
9.99975700874
9.9998333901
9.99989346547
9.99993608675
9.99996386843
9.99998076769
9.99999052552
9.99999600912
9.99999913776
10.00000106
10.0000023826
10.0000033755
10.0000041287
10.000004662
10.0000049863
10.0000051293
10.000005136
10.0000050596
10.00000495
10.0000048462
10.0000047734
10.0000047433
10.0000047573
10.0000048101
10.0000048929
10.0000049952
10.0000051086
10.0000052263
10.0000053413
10.0000054485
10.000005544
10.0000056256
10.0000056915
10.0000057411
10.000005774
10.0000057901
10.0000057899
10.0000057735
10.0000057418
10.0000056946
10.0000056334
10.0000055576
10.0000054691
10.0000053669
10.0000052534
10.0000051273
10.0000049907
10.0000048438
10.0000046853
10.0000045219
10.0000043403
10.000004168
10.0000039571
10.0000037897
10.0000035324
10.0000034001
10.0000030582
10.0000030272
10.0000000121
10.0000001516
10.0000002851
10.000000412
10.0000005374
10.0000006613
10.0000007834
10.0000009037
10.0000010221
10.0000011392
10.0000012548
10.00000137
10.0000014838
10.0000015981
10.000001711
10.0000018252
10.0000019377
10.0000020525
10.0000021648
10.0000022805
10.0000023927
10.0000025096
10.0000026221
10.0000027397
10.0000028537
10.0000029702
10.0000030883
10.0000031994
10.0000033272
10.0000034236
10.0000035702
10.0000036395
10.0000038096
10.0000038567
10.0000040032
10.0000041462
10.0000039889
10.0000047859
10.0000032459
10.0000066211
10.0000003778
10.000011751
9.9999923347
10.000024219
9.99997421963
10.0000490682
9.9999422483
10.0000865388
9.99990266591
10.0001211571
9.99988121012
10.0001197485
9.99990975707
10.0000662859
9.99997209177
10.000014255
10.0000006603
9.99999219703
10.0000241905
10.000032256
9.9999082137
9.99951783277
9.99882717203
9.99795626312
9.9971271128
9.99655498299
9.99635728735
9.99653414959
9.99699251707
9.99759809797
9.99822249908
9.99877423333
9.99920807353
9.99951787821
9.9997216135
9.9998463665
9.99991806803
9.99995686164
9.99997654966
9.99998588205
9.99999013054
9.99999230174
9.99999395101
9.99999572394
9.99999774229
9.99999987645
10.0000019271
10.0000037243
10.0000051686
10.0000062312
10.0000069376
10.0000073447
10.0000075216
10.0000075357
10.0000074449
10.000007295
10.0000071181
10.0000069379
10.000006768
10.0000066141
10.000006478
10.0000063583
10.0000062529
10.0000061579
10.0000060705
10.0000059868
10.0000059048
10.0000058207
10.0000057344
10.0000056414
10.0000055445
10.0000054371
10.000005326
10.0000052009
10.0000050739
10.0000049291
10.000004786
10.0000046202
10.0000044605
10.0000042734
10.0000040953
10.0000038879
10.0000036846
10.0000034624
10.0000032165
10.0000029969
10.0000026716
10.0000025008
10.0000000124
10.0000001536
10.0000002884
10.0000004165
10.000000543
10.0000006681
10.0000007913
10.0000009129
10.0000010327
10.0000011512
10.0000012681
10.0000013844
10.0000014995
10.0000016146
10.0000017289
10.0000018434
10.0000019576
10.0000020722
10.0000021869
10.0000023017
10.000002418
10.0000025324
10.0000026519
10.0000027644
10.0000028907
10.0000029964
10.0000031373
10.0000032247
10.0000033979
10.0000034391
10.0000036853
10.0000036164
10.0000040268
10.0000037091
10.0000044768
10.0000036345
10.0000051176
10.0000032974
10.0000059758
10.0000027851
10.00000663
10.000003097
10.0000049965
10.0000080033
9.99999480709
10.0000269723
9.99996314176
10.0000754762
9.99989495926
10.0001623232
9.99979672507
10.0002544909
9.99973793384
10.0002463002
9.99983103135
10.00009638
9.9999462473
10.0000524554
10.0001549363
9.99967823659
9.99799409855
9.99461863995