/*--------------------------------*- C++ -*----------------------------------*\
  =========                 |
  \\      /  F ield         | OpenFOAM: The Open Source CFD Toolbox
   \\    /   O peration     | Website:  https://openfoam.org
    \\  /    A nd           | Version:  7
     \\/     M anipulation  |
\*---------------------------------------------------------------------------*/
FoamFile
{
    version     2.0;
    format      ascii;
    class       volScalarField;
    location    "1740";
    object      p;
}
// * * * * * * * * * * * * * * * * * * * * * * * * * * * * * * * * * * * * * //

dimensions      [0 2 -2 0 0 0 0];

internalField   nonuniform List<scalar> 
8192
(
0.000615202508965
0.000443659196095
0.000358059926949
0.00031396965173
0.000288970469254
0.000273758836562
0.000263915007228
0.000257193478417
0.0002523869496
0.000248811307524
0.000246059288433
0.000243877161662
0.0002421002675
0.000240617863786
0.00023935314866
0.000238251449811
0.00023727297686
0.000236388217792
0.000235574921056
0.000234816059669
0.000234098421576
0.000233411610192
0.000232747319946
0.000232098799959
0.000231460448499
0.000230827499448
0.000230195773758
0.000229561476521
0.0002289210258
0.000228270903427
0.00022760751896
0.000226927080082
0.000226225464112
0.000225498086283
0.000224739761028
0.000223944553428
0.00022310561867
0.000222215028699
0.000221263586606
0.000220240631696
0.000219133840841
0.000217929035867
0.000216610011174
0.000215158401871
0.000213553618431
0.000211772880273
0.000209791384636
0.000207582648894
0.000205119060194
0.00020237265628
0.000199316142812
0.000195924128614
0.000192174531801
0.000188050083772
0.00018353983633
0.000178640564509
0.000173357949656
0.000167707424335
0.000161714559407
0.000155414885467
0.000148853074584
0.000142081477291
0.000135158103824
0.000128144238818
0.000121101949121
0.000114091766548
0.00010717078558
0.000100391303285
9.38000090617e-05
8.74376325174e-05
8.13388908765e-05
7.55325745559e-05
7.00416470027e-05
6.48832953607e-05
6.00689286278e-05
5.56041709201e-05
5.14889248215e-05
4.77175828304e-05
4.42794408054e-05
4.11593286641e-05
3.83384290383e-05
3.57952204187e-05
3.35064620384e-05
3.14481387827e-05
2.95962988055e-05
2.79277407696e-05
2.64205317848e-05
2.50543589966e-05
2.38107320406e-05
2.26730624848e-05
2.1626648474e-05
2.06585920942e-05
1.97576728641e-05
1.89141967176e-05
1.81198347275e-05
1.73674621255e-05
1.66510042618e-05
1.59652938797e-05
1.53059416572e-05
1.4669220953e-05
1.40519663621e-05
1.34514854682e-05
1.2865482479e-05
1.2291992633e-05
1.17293258785e-05
1.11760187073e-05
1.06307927819e-05
1.00925194269e-05
9.56018887635e-06
9.03288361344e-06
8.50975499722e-06
7.99000285272e-06
7.47285763471e-06
6.95756538462e-06
6.44337586303e-06
5.92953523574e-06
5.41528552908e-06
4.89987523352e-06
4.38258835765e-06
3.86280520671e-06
3.34011828907e-06
2.81454687278e-06
2.28693285129e-06
1.75968325633e-06
1.23821052011e-06
7.33883710677e-07
2.71283728842e-07
-2.69195048906e-08
0.000466282310555
0.00040277498544
0.00035310056187
0.00032046857125
0.000298567773765
0.000283405818841
0.000272602916385
0.000264693664889
0.000258752631571
0.000254181435063
0.000250584108712
0.000247692604568
0.000245321441456
0.000243339579645
0.000241652638455
0.000240191426534
0.000238904392803
0.000237752557301
0.000236706040056
0.000235741638981
0.000234841108934
0.000233989917596
0.000233176330803
0.000232390728868
0.00023162508683
0.000230872572222
0.000230127227655
0.000229383714172
0.000228637098441
0.000227882671854
0.000227115790852
0.000226331730654
0.000225525546482
0.000224691937535
0.000223825109868
0.000222918635423
0.000221965305304
0.000220956976743
0.000219884414522
0.000218737129764
0.000217503221245
0.000216169227844
0.000214720004267
0.000213138636952
0.000211406421464
0.000209502927425
0.000207406179866
0.000205092986825
0.00020253943919
0.000199721600308
0.000196616387534
0.000193202628162
0.000189462248753
0.000185381535476
0.000180952385686
0.000176173461478
0.000171051151113
0.000165600243274
0.000159844219033
0.000153815075226
0.000147552619291
0.000141103230808
0.000134518162274
0.0001278515338
0.000121158234029
0.000114491957687
0.000107903582239
0.000101439985356
9.51433093542e-05
8.90506031185e-05
8.31937129044e-05
7.75992943337e-05
7.22888490159e-05
6.72787364977e-05
6.25801591116e-05
5.81991568521e-05
5.4136671161e-05
5.03887385471e-05
4.69468555986e-05
4.37985254837e-05
4.09279602986e-05
3.83168861415e-05
3.59453828166e-05
3.37926912384e-05
3.1837933664e-05
3.00607113962e-05
2.84415640997e-05
2.6962292256e-05
2.56061558159e-05
2.43579692651e-05
2.32041153141e-05
2.21324990772e-05
2.1132461692e-05
2.01946692804e-05
1.93109893043e-05
1.84743634456e-05
1.76786830986e-05
1.69186716528e-05
1.61897757919e-05
1.54880670798e-05
1.48101539916e-05
1.41531042313e-05
1.35143765811e-05
1.28917615713e-05
1.22833299402e-05
1.16873880694e-05
1.11024393983e-05
1.05271511112e-05
9.96032527713e-06
9.40087394666e-06
8.84779765129e-06
8.30016712312e-06
7.75710808242e-06
7.21778943587e-06
6.68141546608e-06
6.14722340712e-06
5.61448855397e-06
5.08254068238e-06
4.55079762214e-06
4.01882557828e-06
3.48644134722e-06
2.95388113423e-06
2.42207614181e-06
1.89310253959e-06
1.37092145113e-06
8.6264824625e-07
3.80234207646e-07
2.10421945086e-08
0.000383317714576
0.000360659270685
0.000334682130041
0.000313463220015
0.00029736223147
0.000285068732609
0.0002755625259
0.00026811561643
0.000262205844888
0.000257454001346
0.000253581854824
0.000250383465277
0.00024770511279
0.00024543106774
0.00024347342794
0.000241764821223
0.000240253136565
0.000238897695323
0.000237666448064
0.000236533904942
0.000235479593562
0.000234486898618
0.000233542179644
0.000232634092814
0.000231753063297
0.000230890869317
0.000230040309573
0.000229194931536
0.000228348805599
0.000227496333999
0.000226632083638
0.000225750635416
0.000224846444438
0.000223913706571
0.000222946227662
0.000221937292865
0.000220879534279
0.000219764796387
0.000218583999866
0.000217327006198
0.000215982487337
0.00021453780754
0.000212978927308
0.000211290343408
0.000209455082508
0.000207454770221
0.000205269799833
0.000202879626374
0.00020026320873
0.000197399615771
0.000194268799099
0.000190852517643
0.000187135377826
0.000183105933866
0.00017875777742
0.000174090539416
0.000169110724804
0.000163832301628
0.000158276963189
0.000152473984258
0.000146459609088
0.000140275956763
0.000133969502381
0.000127589273649
0.000121184958309
0.000114805137014
0.000108495839483
0.000102299511306
9.62543872195e-05
9.03942036175e-05
8.4748120512e-05
7.93407346429e-05
7.4192099404e-05
6.93177122195e-05
6.47284716294e-05
6.0430641993e-05
5.64258828989e-05
5.27114016599e-05
4.9280267731e-05
4.61218974403e-05
4.32226831172e-05
4.05667154977e-05
3.81365353794e-05
3.59138534219e-05
3.3880189443e-05
3.20174014243e-05
3.03080920783e-05
2.87358961031e-05
2.72856606083e-05
2.59435368586e-05
2.46970024827e-05
2.35348327318e-05
2.24470365617e-05
2.14247707947e-05
2.04602422863e-05
1.95466057572e-05
1.86778623712e-05
1.78487627164e-05
1.70547161622e-05
1.62917078902e-05
1.55562238795e-05
1.48451839486e-05
1.41558823514e-05
1.34859355292e-05
1.28332362461e-05
1.21959135786e-05
1.15722979785e-05
1.09608909371e-05
1.03603385874e-05
9.76940893175e-06
9.18697223385e-06
8.61198450643e-06
8.0434739438e-06
7.48053062018e-06
6.92229982025e-06
6.36798001476e-06
5.81682679963e-06
5.26816513197e-06
4.72141303462e-06
4.17612172183e-06
3.63203906871e-06
3.0892068643e-06
2.54810706626e-06
2.00987987762e-06
1.47664425927e-06
9.51886423945e-07
4.40186892601e-07
3.42643273554e-08
0.00033874464361
0.000330368166123
0.000316189832816
0.000302412224139
0.00029099780044
0.000281735114852
0.000274171156378
0.000267937593148
0.000262756281578
0.000258414674025
0.000254747020797
0.000251622249628
0.000248935885299
0.000246604272755
0.000244560212556
0.000242749560349
0.000241128542007
0.000239661624766
0.000238319827926
0.000237079382186
0.000235920664807
0.000234827352212
0.000233785743351
0.000232784216866
0.000231812792798
0.000230862775825
0.00022992646254
0.000228996895848
0.000228067657631
0.000227132691668
0.000226186147243
0.000225222237943
0.000224235111175
0.000223218724604
0.000222166726384
0.000221072336918
0.000219928230543
0.000218726416499
0.000217458119459
0.000216113661354
0.00021468234776
0.000213152364426
0.000211510692093
0.000209743051184
0.000207833891523
0.000205766446342
0.000203522873019
0.000201084505095
0.000198432238788
0.000195547071705
0.000192410799615
0.000189006859926
0.000185321289073
0.00018134374096
0.000177068499236
0.000172495411681
0.000167630676869
0.000162487415018
0.000157085948805
0.000151453711441
0.000145624705644
0.000139638480667
0.000133538675265
0.0001273712663
0.000121182726162
0.000115018313432
0.000108920718882
0.000102929146941
9.70788117741e-05
9.14007678143e-05
8.59219199483e-05
8.06650869087e-05
7.56490367557e-05
7.0888461266e-05
6.63938987227e-05
6.21716504448e-05
5.82237569353e-05
5.45480993364e-05
5.11386697786e-05
4.79860191263e-05
4.50778532371e-05
4.23997217387e-05
3.99357317775e-05
3.76692243455e-05
3.55833664442e-05
3.36616327885e-05
3.18881692004e-05
3.02480441052e-05
2.87274027928e-05
2.73135430103e-05
2.59949304788e-05
2.47611713346e-05
2.36029555476e-05
2.2511982602e-05
2.14808777946e-05
2.05031053323e-05
1.9572882354e-05
1.86850967037e-05
1.7835230037e-05
1.70192872087e-05
1.62337321966e-05
1.54754305843e-05
1.47415982587e-05
1.4029755962e-05
1.3337689147e-05
1.26634126775e-05
1.20051398094e-05
1.13612550371e-05
1.07302903242e-05
1.0110904415e-05
9.50186488622e-06
8.90203279823e-06
8.31034980262e-06
7.72582779733e-06
7.14754127703e-06
6.57462283155e-06
6.00626241174e-06
5.4417114423e-06
4.88029327207e-06
4.32142230738e-06
3.7646352595e-06
3.20963990723e-06
2.65638928378e-06
2.10519052749e-06
1.55684022961e-06
1.01264764133e-06
4.73582727761e-07
3.64846300922e-08
0.000311106254115
0.000309151115674
0.000301365012268
0.000292184319431
0.000283913837882
0.000276890778397
0.000270958088375
0.000265910433237
0.000261579483371
0.000257835579815
0.000254577472801
0.000251723926514
0.000249208322206
0.000246975279851
0.000244978424088
0.00024317877718
0.000241543512314
0.00024004493712
0.000238659643334
0.000237367788188
0.000236152485738
0.000234999291726
0.00023389576818
0.000232831115555
0.000231795861573
0.000230781597157
0.000229780752326
0.000228786400181
0.000227792087596
0.000226791688026
0.000225779268244
0.000224748966323
0.000223694877762
0.000222610946967
0.000221490861684
0.000220327948543
0.000219115068314
0.000217844510148
0.000216507884762
0.000215096017628
0.000213598844509
0.000212005313589
0.000210303300804
0.000208479548195
0.000206519638771
0.000204408025842
0.0002021281389
0.000199662591486
0.000196993516917
0.000194103053665
0.000190973991176
0.000187590568936
0.000183939398039
0.000180010451786
0.000175798056543
0.000171301812035
0.000166527377451
0.000161487064741
0.000156200169605
0.000150692947656
0.000144998134111
0.000139153946573
0.00013320260803
0.000127188542289
0.000121156469982
0.000115149657648
0.000109208589325
0.000103370141006
9.76672127995e-05
9.21287119083e-05
8.67796862187e-05
8.16414647624e-05
7.67317240698e-05
7.20644532059e-05
6.76498352243e-05
6.34941024393e-05
5.95994468964e-05
5.59640663284e-05
5.25823984012e-05
4.94455528502e-05
4.65419064917e-05
4.38577950054e-05
4.13782245259e-05
3.90875349955e-05
3.69699678596e-05
3.50101148263e-05
3.31932448018e-05
3.15055202348e-05
2.99341212637e-05
2.84672982645e-05
2.70943720552e-05
2.58056982461e-05
2.45926087407e-05
2.3447340268e-05
2.23629569754e-05
2.13332720038e-05
2.03527712037e-05
1.94165410058e-05
1.85202015065e-05
1.76598453033e-05
1.68319821353e-05
1.6033489202e-05
1.52615668012e-05
1.45136989136e-05
1.37876182561e-05
1.30812753849e-05
1.23928113826e-05
1.1720533757e-05
1.10628951524e-05
1.04184745865e-05
9.7859609059e-06
9.16413827762e-06
8.55187352388e-06
7.9481052453e-06
7.35183469486e-06
6.76211853948e-06
6.17806373442e-06
5.59882502857e-06
5.02360591462e-06
4.45166447334e-06
3.88232635433e-06
3.31500820894e-06
2.74925479382e-06
2.18478626068e-06
1.62151586073e-06
1.05935591493e-06
4.97252966036e-07
3.69653027061e-08
0.000292741677339
0.00029365306915
0.00028962478672
0.000283502043415
0.000277417132638
0.000271992012638
0.000267277237762
0.000263177885562
0.000259587326357
0.000256417042353
0.000253597640687
0.00025107429371
0.000248802537736
0.000246745371954
0.00024487140702
0.000243153681963
0.000241568869289
0.000240096698711
0.000238719506054
0.000237421858738
0.000236190233296
0.000235012732465
0.00023387883505
0.000232779174232
0.000231705340953
0.000230649709327
0.000229605282962
0.000228565553009
0.000227524372032
0.000226475842287
0.000225414210387
0.000224333768674
0.000223228761252
0.000222093292821
0.000220921238608
0.000219706153964
0.000218441182415
0.000217118961368
0.000215731525126
0.000214270205678
0.000212725532704
0.000211087135912
0.000209343654924
0.000207482665065
0.00020549063131
0.000203352907643
0.000201053804397
0.000198576751173
0.000195904585443
0.000193019994679
0.00018990612948
0.00018654738559
0.000182930325203
0.000179044680191
0.000174884362001
0.000170448403968
0.00016574177752
0.00016077603565
0.000155569721163
0.00015014843276
0.000144544408451
0.000138795523399
0.000132943726137
0.000127033090693
0.000121107754812
0.000115210040084
0.00010937909536
0.000103650155158
9.80543344241e-05
9.26188042268e-05
8.73670805956e-05
8.2319260167e-05
7.74921243652e-05
7.28990922977e-05
6.85500491583e-05
6.44511233956e-05
6.06045164731e-05
5.70084871166e-05
5.36575563439e-05
5.05429440374e-05
4.76531920038e-05
4.49748913212e-05
4.2493421831e-05
4.01936263464e-05
3.80603700813e-05
3.60789655791e-05
3.42354666143e-05
3.25168488078e-05
3.09111004678e-05
2.94072473984e-05
2.7995332296e-05
2.66663652551e-05
2.54122576262e-05
2.42257479596e-05
2.31003258457e-05
2.20301574332e-05
2.10100148283e-05
2.00352106184e-05
1.91015380101e-05
1.82052166982e-05
1.73428442482e-05
1.65113526817e-05
1.57079698152e-05
1.49301849288e-05
1.41757182872e-05
1.34424941043e-05
1.27286165226e-05
1.20323482586e-05
1.13520915545e-05
1.06863711591e-05
1.00338190484e-05
9.39316067829e-06
8.76320255472e-06
8.14282098997e-06
7.5309519278e-06
6.92658183398e-06
6.32873972278e-06
5.7364906035e-06
5.14893085097e-06
4.56518638178e-06
3.98441475352e-06
3.40581192031e-06
2.82862102454e-06
2.25212755136e-06
1.67558291662e-06
1.09788859284e-06
5.16701628068e-07
3.78367570032e-08
0.000279848980493
0.000281991939712
0.000280209582172
0.00027620330685
0.000271724333237
0.00026749002532
0.00026369007205
0.000260319114311
0.000257319980231
0.00025463239183
0.000252205445465
0.000249998426271
0.000247978760886
0.000246119850698
0.000244399427364
0.000242798431848
0.000241300275426
0.000239890347824
0.000238555675994
0.000237284672286
0.000236066935695
0.000234893085611
0.000233754616789
0.000232643769445
0.000231553411106
0.00023047692843
0.000229408128288
0.000228341141875
0.000227270336255
0.000226190234963
0.000225095439244
0.000223980552097
0.000222840103804
0.000221668477734
0.000220459835203
0.000219208038253
0.000217906569241
0.000216548446353
0.000215126134373
0.000213631450565
0.000212055466316
0.000210388406477
0.000208619550355
0.000206737141266
0.000204728315789
0.000202579069474
0.000200274282506
0.000197797835891
0.000195132853935
0.00019226210887
0.000189168614059
0.000185836410333
0.00018225151657
0.000178402979743
0.000174283936839
0.000169892605749
0.000165233151742
0.000160316401485
0.000155160356491
0.00014979038178
0.000144238870983
0.000138544218628
0.000132749104634
0.00012689831238
0.000121036412384
0.00011520566352
0.000109444574003
0.000103787247223
9.8263387496e-05
9.2898724201e-05
8.77154906913e-05
8.27327689919e-05
7.79666337912e-05
7.34300859496e-05
6.91328104492e-05
6.50808518425e-05
6.12763419934e-05
5.77174122247e-05
5.43983745365e-05
5.13101833443e-05
4.84411172905e-05
4.57775751634e-05
4.33048719274e-05
4.10079443303e-05
3.88719140319e-05
3.6882493599e-05
3.50262475192e-05
3.32907345053e-05
3.16645612288e-05
3.01373751876e-05
2.86998191595e-05
2.7343463916e-05
2.60607307626e-05
2.48448114575e-05
2.36895901324e-05
2.25895698249e-05
2.15398049108e-05
2.05358398837e-05
1.95736544359e-05
1.8649614506e-05
1.77604288193e-05
1.69031103876e-05
1.60749424289e-05
1.52734481889e-05
1.44963641817e-05
1.3741616411e-05
1.30072991728e-05
1.22916560846e-05
1.15930630202e-05
1.09100126659e-05
1.02411004413e-05
9.58501155625e-06
8.94050900421e-06
8.30642232063e-06
7.68163697344e-06
7.06508430643e-06
6.45573202533e-06
5.85257531205e-06
5.25462873457e-06
4.66091909693e-06
4.07047889848e-06
3.48233822968e-06
2.8955072634e-06
2.30892608866e-06
1.72132166861e-06
1.13084339647e-06
5.34301966663e-07
4.01536966592e-08
0.000270384752751
0.000272995326665
0.0002725635784
0.000270040851981
0.000266777984936
0.000263470672308
0.000260384835576
0.000257583135887
0.000255051513583
0.00025275460157
0.000250656171788
0.000248725061519
0.000246935817543
0.00024526777651
0.000243703926952
0.00024222995812
0.000240833560093
0.000239503934953
0.000238231460258
0.000237007454528
0.000235824008223
0.00023467385582
0.000233550273424
0.000232446992375
0.000231358123103
0.00023027808678
0.000229201550514
0.000228123363858
0.000227038498089
0.000225941991177
0.000224828890491
0.000223694195657
0.000222532800651
0.000221339434243
0.0002201085978
0.000218834499457
0.000217510983535
0.000216131454151
0.000214688791996
0.000213175263542
0.00021158242244
0.000209901003916
0.000208120814686
0.000206230623843
0.000204218064497
0.000202069562406
0.000199770316059
0.000197304362373
0.000194654770704
0.000191804011415
0.000188734537392
0.000185429592417
0.000181874218457
0.000178056385744
0.000173968137655
0.000169606651432
0.000164975166682
0.000160083783936
0.000154950114784
0.000149599642072
0.000144065504944
0.000138387433072
0.000132609806229
0.000126779135842
0.000120941388397
0.000115139563581
0.00010941210687
0.000103792359802
9.83088581565e-05
9.29860831688e-05
8.78451692532e-05
8.29043663768e-05
7.81792221559e-05
7.36824859809e-05
6.94237732347e-05
6.54091066609e-05
6.16405124085e-05
5.81158444729e-05
5.48289466738e-05
5.17701633469e-05
4.89271153126e-05
4.6285601185e-05
4.38304797122e-05
4.15464257494e-05
3.94185056045e-05
3.74325650952e-05
3.5575454354e-05
3.38351268699e-05
3.22006510148e-05
3.06621665221e-05
2.92108102803e-05
2.78386282507e-05
2.65384841495e-05
2.53039711689e-05
2.41293299935e-05
2.30093745461e-05
2.19394257408e-05
2.0915252951e-05
1.9933022553e-05
1.89892528237e-05
1.80807744175e-05
1.72046957168e-05
1.63583723811e-05
1.55393805221e-05
1.47454929698e-05
1.39746581903e-05
1.32249814454e-05
1.24947078579e-05
1.17822070653e-05
1.10859592014e-05
1.04045419525e-05
9.73661848027e-06
9.08092600463e-06
8.43626488025e-06
7.80148800194e-06
7.17549041331e-06
6.55719898672e-06
5.9455620379e-06
5.33953859431e-06
4.73808664287e-06
4.14014854534e-06
3.54462901127e-06
2.95035436535e-06
2.35598736412e-06
1.75984448995e-06
1.15952792816e-06
5.5129631998e-07
4.45217619401e-08
0.000263183880853
0.000265907242018
0.000266286748632
0.00026480792348
0.000262476752221
0.000259910199929
0.000257401920956
0.000255059853187
0.000252905165747
0.000250925128001
0.000249097178653
0.000247398497061
0.000245809098401
0.000244312322546
0.000242894426221
0.000241543974311
0.000240251280575
0.000239007964304
0.00023780662091
0.000236640583914
0.000235503753845
0.000234390473637
0.000233295435264
0.000232213606849
0.000231140172935
0.000230070485183
0.000229000014477
0.000227924306011
0.000226838936449
0.00022573947445
0.000224621438434
0.00022348025316
0.000222311204318
0.000221109390296
0.000219869670204
0.00021858660709
0.000217254405168
0.000215866839745
0.000214417178406
0.000212898092079
0.000211301554821
0.000209618731867
0.000207839856923
0.00020595410236
0.0002039494505
0.000201812581231
0.000199528801269
0.00019708205301
0.000194455054006
0.000191629626381
0.00018858727078
0.000185310012292
0.000181781492922
0.000177988218387
0.000173920819602
0.000169575201747
0.000164953537425
0.000160065155043
0.00015492736164
0.000149566047873
0.000144015661893
0.000138318102018
0.000132520457659
0.000126672029752
0.000120821175763
0.000115012434365
0.000109284694905
0.000103670786061
9.8198199512e-05
9.2890278204e-05
8.77671918032e-05
8.2846514971e-05
7.81434428315e-05
7.36706556627e-05
6.94378599925e-05
6.54511524381e-05
6.17124438879e-05
5.82191746433e-05
5.4964462125e-05
5.19376902727e-05
4.91254235554e-05
4.65124574045e-05
4.40828197507e-05
4.18205953586e-05
3.97105184538e-05
3.77383394768e-05
3.58910065493e-05
3.4156713472e-05
3.25248623557e-05
3.09859785438e-05
2.95316040731e-05
2.81541861866e-05
2.6846970311e-05
2.56039021303e-05
2.44195405091e-05
2.32889813406e-05
2.22077915906e-05
2.11719524238e-05
2.01778102378e-05
1.92220344551e-05
1.83015810557e-05
1.74136609436e-05
1.65557123864e-05
1.57253768656e-05
1.49204777949e-05
1.41390016288e-05
1.33790809754e-05
1.26389793632e-05
1.19170773771e-05
1.12118598992e-05
1.05219042313e-05
9.84586888495e-06
9.18248285354e-06
8.53053517496e-06
7.8888646065e-06
7.25634919922e-06
6.63189551639e-06
6.01442708198e-06
5.40287133513e-06
4.79614362766e-06
4.19312526041e-06
3.59262927687e-06
2.99334122013e-06
2.39371008794e-06
1.79174690995e-06
1.18467519397e-06
5.68408682765e-07
5.13369440845e-08
0.000257549748168
0.000260224967944
0.000261087479907
0.000260343562078
0.000258728187701
0.000256760644603
0.000254730386359
0.000252770484672
0.000250928212392
0.000249210227915
0.000247606716661
0.00024610287389
0.000244683787679
0.000243336177467
0.000242048754793
0.000240812049076
0.000239618075714
0.000238460001253
0.000237331858967
0.000236228324867
0.000235144547702
0.00023407602188
0.000233018492371
0.000231967882503
0.000230920237423
0.000229871681238
0.000228818375574
0.000227756482262
0.000226682130897
0.000225591387606
0.000224480222005
0.000223344472612
0.000222179809851
0.000220981695726
0.000219745339139
0.000218465645707
0.00021713716068
0.000215754003376
0.000214309791231
0.000212797551387
0.000211209617664
0.000209537511088
0.000207771803153
0.000205901963388
0.000203916197209
0.000201801287788
0.000199542467425
0.000197123360241
0.000194526056653
0.000191731395399
0.000188719529466
0.00018547082363
0.000181967064137
0.000178192867219
0.000174137098717
0.000169794129758
0.000165164885077
0.000160257811831
0.000155089914751
0.000149687715494
0.000144087533983
0.000138334349075
0.00013247908663
0.000126575018979
0.000120674006432
0.000114822996774
0.000109061796715
0.000103422856616
9.79326384363e-05
9.26133921126e-05
8.7484427362e-05
8.25627849578e-05
7.78634801559e-05
7.33993232649e-05
6.91803017168e-05
6.52127083748e-05
6.1498340474e-05
5.80340771298e-05
5.48120196754e-05
5.18201994362e-05
4.90436866744e-05
4.64658443777e-05
4.40694864132e-05
4.18377872085e-05
3.97548922536e-05
3.78062549122e-05
3.5978762768e-05
3.42607235898e-05
3.26417704129e-05
3.11127288869e-05
2.96654744738e-05
2.82927951584e-05
2.69882672157e-05
2.57461466802e-05
2.45612764276e-05
2.34290075013e-05
2.23451328062e-05
2.13058312696e-05
2.03076206989e-05
1.93473178227e-05
1.84220042228e-05
1.75289971076e-05
1.66658240514e-05
1.58302010003e-05
1.50200129572e-05
1.42332968771e-05
1.34682263735e-05
1.27230979085e-05
1.19963181829e-05
1.12863924836e-05
1.05919137707e-05
9.91155230444e-06
9.24404561854e-06
8.58818864217e-06
7.94282374424e-06
7.30683041503e-06
6.67911417352e-06
6.05859404209e-06
5.44418744736e-06
4.83479047361e-06
4.2292496199e-06
3.62631791491e-06
3.02458245625e-06
2.42234141626e-06
1.81739813656e-06
1.20673839529e-06
5.86088743356e-07
6.08592118829e-08
0.00025304727812
0.000255605574341
0.000256749333241
0.000256522216226
0.000255456276735
0.000253974817868
0.000252344964617
0.000250709353334
0.000249132491191
0.000247636406285
0.000246222559096
0.00024488375076
0.0002436100355
0.000242391388485
0.000241218737817
0.000240084226248
0.000238981143174
0.000237903740131
0.000236847026495
0.000235806584583
0.000234778416218
0.00023375882085
0.00023274430079
0.000231731487952
0.000230717086751
0.000229697831562
0.000228670447596
0.000227631614333
0.000226577938488
0.000225505926209
0.000224411954792
0.000223292243048
0.000222142819297
0.000220959485952
0.000219737779517
0.000218472924699
0.00021715978103
0.000215792780057
0.000214365850764
0.000212872330361
0.000211304857268
0.000209655242901
0.000207914319443
0.000206071762561
0.000204115892266
0.000202033463103
0.000199809468488
0.000197427004262
0.000194867262386
0.0001921097507
0.000189132844438
0.000185914747506
0.00018243485733
0.000178675394023
0.000174623034896
0.000170270298306
0.000165616620646
0.000160669370366
0.000155445134619
0.000149971196682
0.000144286327737
0.000138439648178
0.000132487250407
0.000126487761835
0.000120497876407
0.000114567995776
0.000108739323163
0.000103043939424
9.75071840478e-05
9.2150220722e-05
8.69916010575e-05
8.20479657452e-05
7.73343175554e-05
7.28638098603e-05
6.86469261293e-05
6.46902948058e-05
6.09955932353e-05
5.75589515019e-05
5.43710963636e-05
5.14182320923e-05
4.86834203618e-05
4.61481060648e-05
4.37934751715e-05
4.16014644825e-05
3.95553842855e-05
3.76402095007e-05
3.58426334308e-05
3.41509768062e-05
3.25550245077e-05
3.10458382533e-05
2.96155733155e-05
2.8257313049e-05
2.6964926194e-05
2.57329470344e-05
2.45564762133e-05
2.34310991657e-05
2.23528191144e-05
2.13180018586e-05
2.03233300379e-05
1.93657649604e-05
1.84425144816e-05
1.75510057229e-05
1.66888616841e-05
1.58538809905e-05
1.5044020185e-05
1.42573780771e-05
1.34921817673e-05
1.2746774021e-05
1.20196017288e-05
1.13092052147e-05
1.06142081931e-05
9.93330817029e-06
9.26526710299e-06
8.60890208758e-06
7.96307581981e-06
7.32668645389e-06
6.69865631973e-06
6.07791862054e-06
5.4634006551e-06
4.85400105844e-06
4.24855674522e-06
3.64579216817e-06
3.04423872182e-06
2.44210573058e-06
1.83707906339e-06
1.22602694724e-06
6.04618107446e-07
7.32415591668e-08
0.000249393352667
0.000251809405784
0.000253109082202
0.000253244298724
0.000252599124096
0.000251511853305
0.000250218931111
0.000248861752716
0.000247514460591
0.000246210279589
0.000244960029313
0.00024376339624
0.000242615203728
0.000241508651295
0.000240436853893
0.00023939348066
0.000238372943068
0.000237370374405
0.000236381525419
0.000235402637412
0.000234430320511
0.000233461447813
0.000232493067742
0.000231522333286
0.000230546446038
0.000229562612452
0.000228568005574
0.000227559727983
0.000226534786273
0.000225490064414
0.00022442229743
0.000223328044084
0.000222203657394
0.000221045251843
0.000219848665965
0.000218609418841
0.000217322658672
0.000215983101173
0.000214584954905
0.000213121829989
0.000211586625807
0.00020997139271
0.000208267162538
0.000206463743875
0.000204549481515
0.000202510987651
0.000200332867346
0.000197997485492
0.000195484856944
0.000192772780034
0.00018983735819
0.000186654033131
0.000183199150169
0.000179451888102
0.000175396191405
0.000171022313849
0.000166327873953
0.000161318834534
0.000156011068873
0.000150432600123
0.000144625253617
0.000138643599165
0.000132550542233
0.000126411740923
0.000120290413638
0.000114241799739
0.000108309034009
0.000102523675137
9.69097452189e-05
9.14873323919e-05
8.62743656587e-05
8.12872087101e-05
7.65409933754e-05
7.2049427827e-05
6.78237186544e-05
6.38709664635e-05
6.01926855037e-05
5.67839890954e-05
5.36337545427e-05
5.07257538216e-05
4.80404074286e-05
4.55566700436e-05
4.3253636867e-05
4.11116632878e-05
3.91129842454e-05
3.72419343769e-05
3.5484904357e-05
3.38301535848e-05
3.22675652419e-05
3.07883961772e-05
2.9385048556e-05
2.80508738739e-05
2.67800106759e-05
2.55672529278e-05
2.44079443161e-05
2.32978936367e-05
2.22333069004e-05
2.12107325426e-05
2.02270168226e-05
1.9279267157e-05
1.83648216311e-05
1.748122336e-05
1.6626198667e-05
1.57976382963e-05
1.49935810447e-05
1.42121993384e-05
1.34517863686e-05
1.2710744483e-05
1.19875745729e-05
1.12808662386e-05
1.05892885322e-05
9.91158108883e-06
9.24654544107e-06
8.59303628345e-06
7.9499523787e-06
7.3162266745e-06
6.6908149748e-06
6.07268213329e-06
5.4607840936e-06
4.85404303347e-06
4.25131113333e-06
3.65131580196e-06
3.05257541361e-06
2.45327031168e-06
1.8510514572e-06
1.2427740159e-06
6.24161265792e-07
8.8542625692e-08
0.000246396414343
0.000248664930594
0.000250041792456
0.000250429475137
0.000250105551008
0.000249337147844
0.000248327843984
0.000247211034883
0.000246064565262
0.000244929015855
0.000243822477508
0.000242750547051
0.000241712442078
0.000240704486966
0.000239721979447
0.000238760118138
0.00023781441095
0.000236880810075
0.000235955712019
0.000235035897978
0.000234118453898
0.000233200689518
0.000232280064861
0.000231354126898
0.000230420458312
0.000229476634323
0.000228520184545
0.000227548557474
0.000226559094324
0.000225549002842
0.000224515331603
0.000223454943545
0.000222364487534
0.000221240366701
0.000220078702176
0.000218875290557
0.000217625553096
0.000216324473988
0.000214966524377
0.000213545567723
0.000212054740934
0.000210486304451
0.000208831453456
0.000207080082464
0.000205220498042
0.000203239081838
0.000201119922083
0.000198844460629
0.000196391247325
0.000193735949967
0.000190851815904
0.000187710776074
0.00018428526286
0.000180550550268
0.00017648710894
0.000172082363723
0.00016733164606
0.000162238985125
0.000156818947613
0.000151099998944
0.00014512762825
0.000138963562055
0.000132679647727
0.000126350638265
0.000120048542607
0.000113835459874
0.000107757126057
0.000101844185775
9.61190692743e-05
9.06008772384e-05
8.53071354337e-05
8.02540095414e-05
7.54568160603e-05
7.09299861156e-05
6.66856522305e-05
6.27314793063e-05
5.90686900211e-05
5.56909767063e-05
5.25847130338e-05
4.97304425854e-05
4.7105147229e-05
4.46846043418e-05
4.24452944011e-05
4.03656302251e-05
3.8426542668e-05
3.66115910537e-05
3.4906788063e-05
3.33002912072e-05
3.17820603329e-05
3.03435355112e-05
2.89773588488e-05
2.76771457434e-05
2.64373021533e-05
2.52528809112e-05
2.41194695087e-05
2.30331024606e-05
2.1990192542e-05
2.09874763656e-05
2.00219708368e-05
1.90909378602e-05
1.81918553452e-05
1.73223930464e-05
1.64803921567e-05