/*--------------------------------*- C++ -*----------------------------------*\
  =========                 |
  \\      /  F ield         | OpenFOAM: The Open Source CFD Toolbox
   \\    /   O peration     | Website:  https://openfoam.org
    \\  /    A nd           | Version:  7
     \\/     M anipulation  |
\*---------------------------------------------------------------------------*/
FoamFile
{
    version     2.0;
    format      ascii;
    class       surfaceScalarField;
    location    "1740";
    object      phi;
}
// * * * * * * * * * * * * * * * * * * * * * * * * * * * * * * * * * * * * * //

dimensions      [0 3 -1 0 0 0 0];

internalField   nonuniform List<scalar> 
16192
(
6.92915245672e-10
2.44584754328e-10
4.93547567985e-10
1.99367672961e-10
3.64806107807e-10
1.28741455532e-10
2.82222573804e-10
8.25835294586e-11
2.2759998143e-10
5.46225876729e-11
1.899936881e-10
3.76062885119e-11
1.63059962919e-10
2.69337203117e-11
1.43085164239e-10
1.99747938139e-11
1.27834226349e-10
1.5250933063e-11
1.15914142988e-10
1.19200785987e-11
1.06424112223e-10
9.49002608368e-12
9.876040206e-11
7.66370557786e-12
9.25048115251e-11
6.25558605334e-12
8.73590178823e-11
5.14578927822e-12
8.31047082387e-11
4.25430540386e-12
7.9578601875e-11
3.52610226464e-12
7.66563251505e-11
2.92227277622e-12
7.42417050358e-11
2.41461633664e-12
7.22594745427e-11
1.98222689803e-12
7.06501851003e-11
1.60928605345e-12
6.93665827434e-11
1.283599189e-12
6.83709782299e-11
9.95601593786e-13
6.76333066435e-11
7.37668931795e-13
6.71296750108e-11
5.03629274716e-13
6.6841261568e-11
2.88411400144e-13
6.67534728073e-11
8.77870696119e-14
6.68552921204e-11
-1.018206317e-13
6.71387721029e-11
-2.83480887236e-13
6.75986354078e-11
-4.59863773036e-13
6.82319595476e-11
-6.33324124046e-13
6.90379249624e-11
-8.05964890537e-13
7.00176097303e-11
-9.79683681595e-13
7.11738166293e-11
-1.15620522455e-12
7.25109200071e-11
-1.33710105532e-12
7.40347198437e-11
-1.52379683947e-12
7.57522904344e-11
-1.71756685358e-12
7.76718095177e-11
-1.91951458063e-12
7.98023526034e-11
-2.13053774872e-12
8.21536346892e-11
-2.35127589423e-12
8.47356801627e-11
-2.58203835839e-12
8.75583993482e-11
-2.82271113731e-12
9.06310503346e-11
-3.07264194236e-12
9.39615653428e-11
-3.33050497682e-12
9.75557263932e-11
-3.59414998203e-12
1.01416183269e-10
-3.86044480555e-12
1.05541322675e-10
-4.1251263049e-12
1.09924017678e-10
-4.38268094095e-12
1.14550314629e-10
-4.62628192671e-12
1.1939814373e-10
-4.84781322412e-12
1.24436169339e-10
-5.03800891292e-12
1.29622915415e-10
-5.18672872479e-12
1.34906309044e-10
-5.28337570321e-12
1.40223770938e-10
-5.31744363167e-12
1.45502953141e-10
-5.27916375973e-12
1.50663180261e-10
-5.16020883888e-12
1.55617605895e-10
-4.9544077777e-12
1.6027604607e-10
-4.65842321089e-12
1.64548398303e-10
-4.27233652267e-12
1.68348479244e-10
-3.80006703147e-12
1.71598021465e-10
-3.24953047696e-12
1.74230471241e-10
-2.63244068863e-12
1.761941748e-10
-1.96369734802e-12
1.77454563445e-10
-1.26038560971e-12
1.77995074771e-10
-5.40511471357e-13
1.77816745973e-10
1.78325358745e-13
1.76936649178e-10
8.80090201962e-13
1.75385545145e-10
1.55109427199e-12
1.7320520882e-10
2.18032362058e-12
1.70445841064e-10
2.75935219465e-12
1.67163856686e-10
3.28196631118e-12
1.63420153593e-10
3.74368276366e-12
1.59278810965e-10
4.14132052239e-12
1.54806061409e-10
4.47272602088e-12
1.50069350465e-10
4.73668651149e-12
1.45136318206e-10
4.93300727234e-12
1.40073607597e-10
5.06268553913e-12
1.34945492066e-10
5.12809064257e-12
1.29812404716e-10
5.13306300123e-12
1.24729510253e-10
5.08287081623e-12
1.19745482033e-10
4.98400551723e-12
1.14901620782e-10
4.84383955825e-12
1.1023139832e-10
4.67020192274e-12
1.05760440297e-10
4.47093862838e-12
1.01506902678e-10
4.25351944234e-12
9.7482153122e-11
4.02473253965e-12
9.36916515652e-11
3.7904857278e-12
9.01359250104e-11
3.55571182939e-12
8.68115493624e-11
3.32436202481e-12
8.37120727819e-11
3.09946396489e-12
8.08288401276e-11
2.88322103099e-12
7.81516974044e-11
2.67713199652e-12
7.5669572109e-11
2.48211544506e-12
7.33709348932e-11
2.2986281506e-12
7.12441553455e-11
2.12677124763e-12
6.92777665313e-11
1.96638119522e-12
6.7460654504e-11
1.81710507223e-12
6.57821871364e-11
1.67846100031e-12
6.42322958968e-11
1.5498854462e-12
6.28015213191e-11
1.43076928963e-12
6.14810317986e-11
1.32048472712e-12
6.02626226674e-11
1.21840477015e-12
5.91387017039e-11
1.123917027e-12
5.81022650793e-11
1.03643305582e-12
5.71468673848e-11
9.55394488056e-13
5.62665877222e-11
8.80276765917e-13
5.54559938254e-11
8.10591306848e-13
5.47101048617e-11
7.45886631666e-13
5.40243537535e-11
6.85749033369e-13
5.33945487236e-11
6.29803166791e-13
5.28168340224e-11
5.77713051174e-13
5.22876486805e-11
5.29183862855e-13
5.1803682282e-11
4.83965094134e-13
5.13618254608e-11
4.41855652217e-13
5.09591126141e-11
4.02711819212e-13
5.05926524807e-11
3.66459211274e-13
5.02595411141e-11
3.33110558399e-13
4.99567484959e-11
3.02791890845e-13
4.96809665399e-11
2.757813216e-13
4.94283989971e-11
2.52566972243e-13
4.91944635131e-11
2.33934994378e-13
4.89733571825e-11
2.21105899539e-13
4.87574068258e-11
2.15950009434e-13
4.85360747638e-11
2.21331785615e-13
4.82944227323e-11
2.41651861613e-13
4.80107988878e-11
2.8362377541e-13
4.76538960039e-11
3.56902950636e-13
4.71818310247e-11
4.72065192866e-13
6.05685013339e-13
9.53400599077e-10
2.28684150712e-10
8.59625018463e-10
2.93143244325e-10
7.45069599962e-10
2.43296864865e-10
6.41882379133e-10
1.85770741017e-10
5.5669153937e-10
1.39813417915e-10
4.88294681123e-10
1.06003137104e-10
4.33669206256e-10
8.15591854953e-11
3.89861657578e-10
6.3782332859e-11
3.54457777359e-10
5.06548037475e-11
3.25600377395e-10
4.07774691661e-11
3.01889505782e-10
3.32008884618e-11
2.82272678291e-10
2.72805240217e-11
2.6595416149e-10
2.25740940123e-11
2.5232665607e-10
1.87732860843e-11
2.40921667387e-10
1.56592857236e-11
2.31373878379e-10
1.30738831873e-11
2.23395576176e-10
1.09005671978e-11
2.1675818302e-10
9.05200205e-12
2.11278793141e-10
7.46160970356e-12
2.06810251956e-10
6.07782057395e-12
2.03233762126e-10
4.86008279781e-12
2.00453310649e-10
3.77604734034e-12
1.98391422989e-10
2.79955139196e-12
1.96985895593e-10
1.90915205173e-12
1.96187257795e-10
1.0870452073e-12
1.95956783324e-10
3.18258235832e-13
1.96264919536e-10
-4.09959411735e-13
1.97090035257e-10
-1.10859837204e-12
1.98417412932e-10
-1.78724235344e-12
2.00238428952e-10
-2.45434011505e-12
2.02549874855e-10
-3.1174097686e-12
2.0535338033e-10
-3.78318705374e-12
2.08654903624e-10
-4.45772526922e-12
2.12464257877e-10
-5.14645082352e-12
2.16794642264e-10
-5.85417543495e-12
2.21662146401e-10
-6.58506379679e-12
2.27085194112e-10
-7.34255362713e-12
2.33083890403e-10
-8.12922380817e-12
2.39679232002e-10
-8.94660563369e-12
2.46892139948e-10
-9.79493272691e-12
2.54742271204e-10
-1.06728270569e-11
2.63246569141e-10
-1.15769227142e-11
2.72417519099e-10
-1.25014359283e-11
2.82261090294e-10
-1.34377002916e-11
2.9277436816e-10
-1.43736999394e-11
3.03942916876e-10
-1.52936504498e-11
3.15737957127e-10
-1.61776948735e-11
3.28113500729e-10
-1.70017975298e-11
3.41003641956e-10
-1.77379249377e-11
3.54320260133e-10
-1.83545962153e-11
3.6795142252e-10
-1.88178591488e-11
3.81760783428e-10
-1.90927038395e-11
3.95588242504e-10
-1.91448695628e-11
4.09252058467e-10
-1.89429466678e-11
4.22552518962e-10
-1.84606370176e-11
4.35277161747e-10
-1.76790196641e-11
4.47207427875e-10
-1.65886607064e-11
4.58126503507e-10
-1.5191386599e-11
4.67827953016e-10
-1.35014949442e-11
4.76124569186e-10
-1.15461297236e-11
4.82856696343e-10
-9.364556243e-12
4.87899198966e-10
-7.00619406328e-12
4.91166316831e-10
-4.52750352557e-12
4.92613899981e-10
-1.98810064281e-12
4.92238902801e-10
5.53310564391e-13
4.90076454267e-10
3.04252100826e-12
4.8619520179e-10
5.43232345253e-12
4.80691791794e-10
7.68370513354e-12
4.73685295306e-10
9.76581543121e-12
4.65312160861e-10
1.16550633887e-11
4.55721948582e-10
1.33338542446e-11
4.45073807109e-10
1.47894186227e-11
4.3353345911e-10
1.60130288621e-11
4.21270386682e-10
1.69997128472e-11
4.08454937506e-10
1.77484101146e-11
3.95255189468e-10
1.82623876915e-11
3.81833570251e-10
1.85496649174e-11
3.68343389011e-10
1.86232007197e-11
3.54925547458e-10
1.85006705564e-11
3.41705736112e-10
1.82037770362e-11
3.28792377568e-10
1.77571603777e-11
3.16275478893e-10
1.71870650974e-11
3.0422642705e-10
1.65199571889e-11
2.92698644851e-10
1.57812705949e-11
2.81728938675e-10
1.49944098221e-11
2.71339328182e-10
1.41800694359e-11
2.61539144018e-10
1.33558711977e-11
2.52327206286e-10
1.25362768751e-11
2.43693936547e-10
1.17327126006e-11
2.3562330255e-10
1.09538356198e-11
2.28094535628e-10
1.02058810695e-11
2.21083595738e-10
9.49303896459e-12
2.14564383073e-10
8.81782579827e-12
2.08509712569e-10
8.18142801275e-12
2.02892076105e-10
7.58400508838e-12
1.9768422217e-10
7.02494753882e-12
1.92859582471e-10
6.50309023532e-12
1.88392573959e-10
6.01688444303e-12
1.84258801037e-10
5.56453355769e-12
1.80435179929e-10
5.14409799547e-12
1.76900002933e-10
4.75357466209e-12
1.7363295763e-10
4.39095592119e-12
1.70615112449e-10
4.05427245241e-12
1.67828878051e-10
3.74162369064e-12
1.65257951139e-10
3.45119900905e-12
1.6288724605e-10
3.18129222071e-12
1.60702817329e-10
2.93031161428e-12
1.58691775686e-10
2.69678734708e-12
1.56842198017e-10
2.47937786527e-12
1.55143031596e-10
2.27687683731e-12
1.53583990962e-10
2.08822215041e-12
1.52155445415e-10
1.91250856528e-12
1.50848293272e-10
1.74900594798e-12
1.49653818113e-10
1.59718534884e-12
1.48563519971e-10
1.45675590371e-12
1.47568912886e-10
1.32771636702e-12
1.46661277235e-10
1.21042641079e-12
1.45831353166e-10
1.10570440568e-12
1.45068958799e-10
1.01496048248e-12
1.44362517582e-10
9.40375494569e-13
1.43698486341e-10
8.85136563838e-13
1.4306070393e-10
8.537320141e-13
1.42429760879e-10
8.52274617094e-13
1.41782707508e-10
8.88705246778e-13
1.41093989902e-10
9.72341639539e-13
1.40339910552e-10
1.11098274802e-12
1.39513433324e-10
1.2985428676e-12
1.4701882565e-12
9.7622010247e-10
1.899640436e-10
9.62963230243e-10
3.06400106983e-10
9.06037149597e-10
3.00222936106e-10
8.33605295302e-10
2.5820258594e-10
7.60663616498e-10
2.12755087152e-10
6.93625370156e-10
1.73041373767e-10
6.34563405485e-10
1.40621140461e-10
5.83584096613e-10
1.14761632062e-10
5.4000598304e-10
9.42329077323e-11
5.02908872012e-10
7.78745707175e-11
4.71372355543e-10
6.47373955862e-11
4.4456755573e-10
5.40853146441e-11
4.21782536888e-10
4.53591038334e-11
4.0241972495e-10
3.81360891944e-11
3.85983059645e-10
3.20959424087e-11
3.72062728613e-10
2.69942058373e-11
3.60320701151e-10
2.26425865343e-11
3.50478169351e-10
1.88945260149e-11
3.42305087546e-10
1.56346839883e-11
3.35611638314e-10
1.27712626367e-11
3.302413394e-10
1.02303749237e-11
3.26065498152e-10
7.95188222269e-12
3.22978751996e-10
5.8862916364e-12
3.20895476283e-10
3.99242235732e-12
3.19746881888e-10
2.23563473284e-12
3.1947866054e-10
5.86475311032e-13
3.20049064397e-10
-9.80366910273e-13
3.21427327142e-10
-2.48686405854e-12
3.23592354648e-10
-3.95227206205e-12
3.26531625339e-10
-5.39361219314e-12
3.30240246877e-10
-6.82603183386e-12
3.34720123429e-10
-8.26306318782e-12
3.39979191027e-10
-9.71679145556e-12
3.46030680659e-10
-1.11979379534e-11
3.52892368071e-10
-1.27158592049e-11
3.60585768364e-10
-1.42784592025e-11
3.69135230294e-10
-1.58920093749e-11
3.78566882879e-10
-1.75608688068e-11
3.88907383326e-10
-1.92870970474e-11
4.00182414447e-10
-2.10699532619e-11
4.12414879797e-10
-2.29052802411e-11
4.25622750967e-10
-2.47847800445e-11
4.39816532464e-10
-2.66952019159e-11
4.54996331836e-10
-2.86174824128e-11
4.71148554525e-10
-3.05259036844e-11
4.88242290695e-10
-3.23873659473e-11
5.06225520159e-10
-3.41609020379e-11
5.25021333872e-10
-3.57975873322e-11
5.44524443522e-10
-3.72410092391e-11
5.64598318488e-10
-3.842844448e-11
5.85073330214e-10
-3.92928430958e-11
6.05746288703e-10
-3.97656336666e-11
6.26381707465e-10
-3.97802592094e-11
6.46715040081e-10
-3.92762500801e-11
6.6645799948e-10
-3.82035677663e-11
6.85305927519e-10
-3.65269201775e-11
7.02947031077e-10
-3.4229738713e-11
7.19073143791e-10
-3.131747644e-11
7.3339148098e-10
-2.78198128457e-11
7.45636634355e-10
-2.37912680134e-11
7.55581836328e-10
-1.93097480284e-11
7.6304841661e-10
-1.44727693449e-11
7.67912462696e-10
-9.3915501218e-12
7.70108023163e-10
-4.18366706245e-12
7.69626687672e-10
1.03463462277e-12
7.66513937265e-10
6.15525477483e-12
7.60863144313e-10
1.10830946756e-11
7.52808331841e-10
1.57384912227e-11
7.4251673506e-10
2.00573815073e-11
7.3018191532e-10
2.39898487799e-11
7.16017760766e-10
2.74979713867e-11
7.00253347439e-10
3.05537923337e-11
6.8312839612e-10
3.31379390343e-11
6.64888968894e-10
3.52390982323e-11
6.45783081919e-10
3.68542551358e-11
6.26056051776e-10
3.7989376437e-11
6.05945587335e-10
3.866008892e-11
5.85676837722e-10
3.88919113179e-11
5.65457742752e-10
3.87197281521e-11
5.45475077531e-10
3.81864067981e-11
5.25891524445e-10
3.73406799822e-11
5.06843977058e-10
3.62345811073e-11
4.88443116663e-10
3.49207882659e-11
4.70774153916e-10
3.34502061096e-11
4.53898518171e-10
3.18700203081e-11
4.37856223937e-10
3.02223403527e-11
4.22668636871e-10
2.8543436746e-11
4.08341393341e-10
2.6863500626e-11
3.94867276377e-10
2.52068113741e-11
3.8222890823e-10
2.35921870957e-11
3.70401171265e-10
2.20336027378e-11
3.59353313887e-10
2.05408823567e-11
3.49050730321e-10
1.91203965547e-11
3.39456427013e-10
1.7775719634e-11
3.30532201512e-10
1.6508219908e-11
3.22239568041e-10
1.53175712888e-11
3.14540465473e-10
1.42021839397e-11
3.0739778358e-10
1.3159558294e-11
3.00775739849e-10
1.21865699776e-11
2.94640136287e-10
1.12796949506e-11
2.88958520735e-10
1.04351842273e-11
2.8370027398e-10
9.64919729056e-12
2.78836639347e-10
8.91790222376e-12
2.74340708894e-10
8.23754979192e-12
2.70187376519e-10
7.60452747158e-12
2.66353266537e-10
7.01539871655e-12
2.6281664328e-10
6.46693174998e-12
2.5955730611e-10
5.95612174906e-12
2.5655647188e-10
5.48020962264e-12
2.53796646048e-10
5.03670048823e-12
2.51261481627e-10
4.62338462536e-12
2.48935624565e-10
4.23836391636e-12
2.46804542205e-10
3.88008678189e-12
2.44854331054e-10
3.54739516124e-12
2.43071498411e-10
3.2395873518e-12
2.41442712517e-10
2.95650121784e-12
2.39954515581e-10
2.69862241484e-12
2.38592997003e-10
2.4672221809e-12
2.37343429702e-10
2.2645270795e-12
2.36189887368e-10
2.09391725132e-12
2.35114889453e-10
1.96013401458e-12
2.34099181021e-10
1.86944013951e-12
2.33121869919e-10
1.82958557536e-12
2.32161363115e-10
1.84921212729e-12
2.31197919801e-10
1.93578528632e-12
2.30219217418e-10
2.08968563791e-12
2.29229332603e-10
2.28842821645e-12
2.44882817528e-12
9.71752546147e-10
1.55711492827e-10
9.866223455e-10
2.91530297719e-10
9.68045470206e-10
3.18799801746e-10
9.27640852526e-10
2.98607193908e-10
8.77265926297e-10
2.63130003435e-10
8.24446543699e-10
2.25860746285e-10
7.73336456712e-10
1.91731217324e-10
7.2597232466e-10
1.62125754002e-10
6.83170868641e-10
1.37034353688e-10
6.450855234e-10
1.15959905969e-10
6.11532197131e-10
9.82907119555e-11
5.82173030854e-10
8.34444711305e-11
5.56616668559e-10
7.0915456458e-11
5.34470734319e-10
6.02820139026e-11
5.15367519187e-10
5.11991481635e-11
4.98974977285e-10
4.33867385359e-11
4.84999898302e-10
3.66176565066e-11
4.73187102568e-10
3.07073129556e-11
4.6331678018e-10
2.5504997822e-11
4.5520111985e-10
2.0886914678e-11
4.48680825597e-10
1.67506611782e-11
4.43621815582e-10
1.30108845599e-11
4.39912231115e-10
9.59586877407e-12
4.37459795131e-10
6.44485139683e-12
4.36189513569e-10
3.50590976382e-12
4.36041691064e-10
7.34291738867e-13
4.3697022288e-10
-1.90890431448e-12
4.38941118777e-10
-4.45776500899e-12
4.41931222979e-10
-6.94238074315e-12
4.45927088931e-10
-9.38948199745e-12
4.50923968451e-10
-1.18229145329e-11
4.56924877213e-10
-1.42639743937e-11
4.6393969783e-10
-1.67316137296e-11
4.71984280803e-10
-1.9242521725e-11
4.81079501204e-10
-2.18110794856e-11
4.9125022637e-10
-2.44491832502e-11
5.02524146191e-10
-2.71659270103e-11
5.14930414447e-10
-2.99671337232e-11
5.28498046575e-10
-3.28547246097e-11
5.43254018502e-10
-3.58259193091e-11
5.59221012919e-10
-3.88722673951e-11
5.7641476688e-10
-4.1978525276e-11
5.94840988845e-10
-4.51214136298e-11
6.1449183853e-10
-4.826832026e-11
6.35342000283e-10
-5.1376051985e-11
6.57344434039e-10
-5.43897845984e-11
6.80425955625e-10
-5.72424068777e-11
7.04482879477e-10
-5.98544928053e-11
7.29377041699e-10
-6.21351515164e-11
7.54932598761e-10
-6.39839801043e-11
7.80934046006e-10
-6.52942675623e-11
8.07125903588e-10
-6.59574673121e-11
8.33214459115e-10
-6.58687899341e-11
8.5887183953e-10
-6.49336051837e-11
8.83742524846e-10
-6.30742277674e-11
9.07452244898e-10
-6.02366155003e-11
9.29619033692e-10
-5.63965041008e-11
9.49866049179e-10
-5.15644706248e-11
9.67835561658e-10
-4.57893069652e-11
9.83203253875e-10
-3.91589455686e-11
9.95691701684e-10
-3.179818553e-11
1.00508174514e-09
-2.38628072916e-11
1.01122055024e-09
-1.55303547616e-11
1.0140255486e-09
-6.98867006892e-12
1.01348404046e-09
1.57613306471e-12
1.00964891813e-09
9.99036253705e-12
1.00263156289e-09
1.81004306813e-11
9.92593262824e-10
2.5776767697e-11
9.79736411981e-10
3.29142048181e-11
9.64296362957e-10
3.94298668984e-11
9.4653429331e-10
4.52600074165e-11
9.2673102544e-10
5.03570246313e-11
9.05181482922e-10
5.46874447578e-11
8.82189371967e-10
5.82311718911e-11
8.58061722214e-10
6.09818677012e-11
8.33103086187e-10
6.29479759332e-11
8.07609430342e-10
6.41537093062e-11
7.81861984847e-10
6.46393227828e-11
7.56121480141e-10
6.44602004841e-11
7.30623244616e-10
6.36846117928e-11
7.05573561589e-10
6.23903343977e-11
6.81147521638e-10
6.06605944212e-11
6.57488409002e-10
5.85798762073e-11
6.34708484024e-10
5.62301083058e-11
6.12890898766e-10
5.36875846034e-11
5.92092424269e-10
5.10207956287e-11
5.72346664971e-10
4.82891784436e-11
5.5366747415e-10
4.55426753705e-11
5.36052342341e-10
4.28219285029e-11
5.19485595517e-10
4.01589205407e-11
5.0394129871e-10
3.75778873468e-11
4.89385810623e-10
3.50963593409e-11
4.75779971667e-10
3.27262253977e-11
4.6308093455e-10
3.04747475577e-11
4.51243662632e-10
2.83454834627e-11
4.40222130956e-10
2.63390953743e-11
4.2997026814e-10
2.44540398641e-11
4.20442677903e-10
2.26871422915e-11
4.1159517636e-10
2.10340658722e-11
4.03385178146e-10
1.94896880687e-11
3.95771959964e-10
1.80483978131e-11
3.88716826323e-10
1.67043268028e-11
3.82183197835e-10
1.54515270058e-11
3.76136639065e-10
1.42841052489e-11
3.70544839289e-10
1.31963242885e-11
3.65377556875e-10
1.21826784993e-11
3.60606535201e-10
1.12379510832e-11
3.56205396097e-10
1.03572587831e-11
3.52149514616e-10
9.53608927086e-12
3.48415877613e-10
8.77033587608e-12
3.44982926898e-10
8.05633391444e-12
3.41830386822e-10
7.39090274094e-12
3.38939074955e-10
6.77139754502e-12
3.36290694193e-10
6.19577495701e-12
3.33867604284e-10
5.66267640964e-12
3.31652571917e-10
5.171532843e-12
3.29628500597e-10
4.72269308497e-12
3.27778146865e-10
4.31757535629e-12
3.26083838601e-10
3.95883487415e-12
3.24527228346e-10
3.65052713416e-12
3.23089143214e-10
3.39821888244e-12
3.21749640632e-10
3.20894259923e-12
3.20488452115e-10
3.09077414231e-12
3.19286095271e-10
3.05156923543e-12
3.18126010901e-10
3.0958701133e-12
3.16997802705e-10
3.21789439235e-12
3.15899586334e-10
3.38664510664e-12
3.51987008996e-12
9.63939583027e-10
1.29271904679e-10
9.87676039983e-10
2.67793830206e-10
9.89734064284e-10
3.16741767128e-10
9.72198976725e-10
3.16142271208e-10
9.42015286075e-10
2.93313683624e-10
9.05227287955e-10
2.62648733812e-10
8.66027844818e-10
2.30930649816e-10
8.27062585217e-10
2.01091002959e-10
7.89886582225e-10
1.74210346065e-10
7.5533802649e-10
1.5050845114e-10
7.23802865948e-10
1.29825861998e-10
6.95391627448e-10
1.11855699209e-10
6.70053950386e-10
9.62531231878e-11
6.47651225341e-10
8.26847287185e-11
6.28001817724e-10
7.08485456686e-11
6.10908651756e-10
6.04798945265e-11
5.96175583313e-10
5.1350715122e-11
5.83616724817e-10
4.32661617941e-11
5.73061391353e-10
3.60603218171e-11
5.64356366793e-10
2.95919299789e-11
5.57366564048e-10
2.37404548956e-11
5.51974753912e-10
1.84026859243e-11
5.48080782104e-10
1.34898320891e-11
5.45600532064e-10
8.92509325154e-12
5.44464788031e-10
4.64164594458e-12
5.44618087414e-10
5.80984868905e-13
5.46017609642e-10
-3.30843363373e-12
5.48632118231e-10
-7.07228025596e-12
5.52440969092e-10
-1.07512377952e-11
5.57433171144e-10
-1.43816897269e-11
5.63606482583e-10
-1.79962310948e-11
5.70966520926e-10
-2.16240172514e-11
5.79525859206e-10
-2.52909558659e-11
5.89303075979e-10
-2.90197416303e-11
6.00321721917e-10
-3.28297277731e-11
6.12609161202e-10
-3.67366240217e-11
6.26195241067e-10
-4.07520074307e-11
6.41110738843e-10
-4.48826310312e-11
6.57385532355e-10
-4.91295165541e-11
6.75046438563e-10
-5.348682275e-11
6.94114667109e-10
-5.79404918944e-11
7.14602843113e-10
-6.24666958546e-11
7.36511568254e-10
-6.70301318927e-11
7.59825515159e-10
-7.15822587468e-11
7.84509089166e-10
-7.60596159803e-11
8.10501747712e-10
-8.03824314729e-11
8.37713140614e-10
-8.44537864305e-11
8.66018323785e-10
-8.81596609209e-11
8.95253395137e-10
-9.13702061397e-11
9.25211991732e-10
-9.39425583264e-11
9.55643147714e-10
-9.57254036386e-11
9.86251020425e-10
-9.65653187151e-11
1.01669692604e-09
-9.63146730902e-11
1.04660398747e-09
-9.48406433006e-11
1.07556450816e-09
-9.20347247687e-11
1.10314999095e-09
-8.7822074798e-11
1.12892355053e-09
-8.21700411101e-11
1.15245431252e-09
-7.50952117823e-11
1.17333318955e-09
-6.66681658024e-11
1.19118912207e-09
-5.70148633379e-11
1.20570450815e-09
-4.63135610577e-11
1.21662829801e-09
-3.4786591261e-11
1.22378529972e-09
-2.26873555462e-11
1.2270807022e-09
-1.02840766206e-11
1.22649954135e-09
2.15728492507e-12
1.22210164336e-09
1.43882468114e-11
1.21401331434e-09
2.61887414873e-11
1.20241742933e-09
3.73726303308e-11
1.18754344599e-09
4.77881620278e-11
1.16965832759e-09
5.73149560067e-11
1.14905870854e-09
6.58595946738e-11
1.12606415033e-09
7.33515493237e-11
1.10101107223e-09
7.97404883223e-11
1.07424685741e-09
8.4995351864e-11
1.0461236997e-09
8.91049908256e-11
1.01699195809e-09
9.20796837416e-11
9.87193071834e-10
9.39525629219e-11
9.57052373992e-10
9.47799894667e-11
9.26872333536e-10
9.46402114678e-11
8.96926803612e-10
9.36301140856e-11
8.6745675061e-10
9.18603616706e-11
8.3866773283e-10
8.94495884012e-11
8.10729157023e-10
8.65184301036e-11
7.83775133016e-10
8.31841122393e-11
7.57906608423e-10
7.95560908607e-11
7.33194407448e-10
7.57329799121e-11
7.09682804876e-10
7.18007658441e-11
6.87393317006e-10
6.7832149481e-11
6.66328461061e-10
6.38867719723e-11
6.46475307862e-10
6.00120624428e-11
6.2780871731e-10
5.62444676665e-11
6.10294199185e-10
5.26108682036e-11
5.93890380703e-10
4.91300354917e-11
5.78551089609e-10
4.58140310616e-11
5.642270785e-10
4.26694877004e-11
5.5086742583e-10
3.96987418321e-11
5.38420652917e-10
3.69008071603e-11
5.26835596884e-10
3.4272193258e-11
5.16062077288e-10
3.18075808984e-11
5.06051391129e-10
2.9500370119e-11
4.9675666674e-10
2.73431185119e-11
4.8813310315e-10
2.53278870914e-11
4.80138117269e-10
2.34465099347e-11
4.7273141768e-10
2.16908022113e-11
4.65875020209e-10
2.00527194252e-11
4.59533217633e-10
1.85244790105e-11
4.53672513056e-10
1.70986538344e-11
4.48261524373e-10
1.57682458618e-11
4.43270865122e-10
1.45267471106e-11
4.38673005563e-10
1.33681942008e-11
4.34442116277e-10
1.22872221184e-11
4.30553895715e-10
1.12791223607e-11
4.26985382249e-10
1.03399101877e-11
4.23714751198e-10
9.46640529278e-12
4.20721097532e-10
8.65632945275e-12
4.17984206419e-10
7.90842341901e-12
4.15484316394e-10
7.2225826458e-12
4.13201884925e-10
6.60000643571e-12
4.11117374012e-10
6.04334546715e-12
4.09211086122e-10
5.5568147885e-12
4.07463098969e-10
5.14620589413e-12
4.05853372633e-10
4.81866892404e-12
4.04362129097e-10
4.58201783156e-12
4.02970611141e-10
4.44308755687e-12
4.01662223474e-10
4.40425834381e-12
4.00423528783e-10
4.45658969876e-12
3.99242648263e-10
4.56752614921e-12
4.66354384525e-12
9.57551430849e-10
1.09220468514e-10
9.82553631054e-10
2.42791619062e-10
9.95047577218e-10
3.04247810339e-10
9.9229104963e-10
3.18898788128e-10
9.77432371921e-10
3.08172350427e-10
9.54575159406e-10
2.85505935286e-10
9.27172541702e-10
2.58333256429e-10
8.97758801458e-10
2.30504732106e-10
8.68072657278e-10
2.03896479169e-10
8.39250340269e-10
1.79330757109e-10
8.11997667888e-10
1.57078523383e-10
7.86723077609e-10
1.37130278547e-10
7.63634686417e-10
1.19341503502e-10
7.42809044342e-10
1.03510359989e-10
7.24238966344e-10
8.94186129472e-11
7.0786636889e-10
7.685248136e-11
6.93604545502e-10
6.56125280011e-11
6.81353088213e-10
5.5517608703e-11
6.71007730622e-10
4.64056691713e-11
6.62466708666e-10
3.81329418608e-11
6.55634749719e-10
3.05724039467e-11
6.5042545833e-10
2.36119676174e-11
6.46762627314e-10
1.71526536273e-11
6.44580836159e-10
1.11068751718e-11
6.43825582724e-10
5.39689040767e-12
6.4445311375e-10
-4.65548367307e-14
6.4643006067e-10
-5.28538891736e-12
6.49732949919e-10
-1.03751775182e-11
6.54347639933e-10
-1.5365935441e-11
6.60268695836e-10
-2.03027528398e-11
6.6749871054e-10
-2.52262525477e-11
6.76047567538e-10
-3.01728804851e-11
6.85931631145e-10
-3.51750251474e-11
6.97172841985e-10
-4.02609575169e-11
7.09797688224e-10
-4.54545783683e-11
7.23836016629e-10
-5.07749560116e-11
7.39319641316e-10
-5.62356348525e-11
7.56280702824e-10
-6.1843694327e-11
7.7474972579e-10
-6.75985402682e-11
7.94753321387e-10
-7.34904179421e-11
8.16311481485e-10
-7.9498650337e-11
8.39434417718e-10
-8.55896290618e-11
8.64118911908e-10
-9.171462159e-11
8.90344168809e-10
-9.78075095749e-11
9.18067200409e-10
-1.03782639846e-10
9.47217828008e-10
-1.09533049587e-10
9.77693465214e-10
-1.14929412349e-10
1.0093539425e-09
-1.19820125066e-10
1.04201674407e-09
-1.24032992702e-10
1.07545313588e-09
-1.27378933267e-10
1.10938574272e-09
-1.2965799182e-10
1.1434881507e-09
-1.30667706329e-10
1.17738704056e-09
-1.30213541078e-10
1.21066719397e-09
-1.28120773601e-10
1.24287948983e-09
-1.2424699671e-10
1.27355178625e-09
-1.18494347069e-10
1.30220241786e-09
-1.10820649107e-10
1.32835591558e-09
-1.01248687328e-10
1.35156037491e-09
-8.98726054011e-11
1.37140554706e-09
-7.68600192288e-11
1.38754022857e-09
-6.24482306468e-11
1.3996871276e-09
-4.69334833744e-11
1.40765341729e-09
-3.06536436475e-11
1.41133574777e-09
-1.39664109246e-11
1.41071937147e-09
2.77365216306e-12
1.40587201154e-09
1.9235592677e-11
1.39693403223e-09
3.51267020881e-11
1.38410699313e-09
5.0199646445e-11
1.36764247327e-09
6.42526551618e-11
1.34783226253e-09
7.71251369384e-11
1.32500016214e-09
8.86916629484e-11
1.29949507883e-09
9.88565990351e-11
1.27168484674e-09
1.07550686127e-10
1.24195014765e-09
1.14730016649e-10
1.21067798874e-09
1.20377116014e-10
1.17825444763e-09
1.2450319217e-10
1.14505675617e-09
1.27150223083e-10
1.11144515128e-09
1.28391564732e-10
1.07775515841e-09
1.28330176538e-10
1.044291022e-09
1.27094224661e-10
1.0113208555e-09
1.24830504328e-10
9.79073817515e-10
1.21696604525e-10
9.47739321769e-10
1.17852905913e-10
9.17468042149e-10
1.13455373774e-10
8.88374322953e-10
1.08649793703e-10
8.60539552956e-10
1.0356773518e-10
8.3401608623e-10
9.83242193242e-11
8.0883136213e-10
9.30168616994e-11
7.84991962256e-10
8.77261611892e-11
7.62487425833e-10
8.25165893224e-11
7.41293715418e-10
7.74381695252e-11
7.21376279993e-10
7.25282959639e-11
7.02692701577e-10
6.78136070321e-11
6.85194938054e-10
6.33117884214e-11
6.68831190758e-10
5.90332294639e-11
6.53547434171e-10
5.49824934601e-11
6.39288648295e-10
5.11595885859e-11
6.25999794441e-10
4.75610431309e-11
6.13626572806e-10
4.41807989684e-11
6.02115997109e-10
4.10109426365e-11
5.91416817388e-10
3.80422953996e-11
5.81479818234e-10
3.52648837309e-11
5.72258015604e-10
3.26683103366e-11
5.63706771808e-10
3.02420440443e-11
5.557838448e-10
2.79756447061e-11
5.4844938505e-10
2.58589372495e-11
5.41665890549e-10
2.38821470166e-11
5.35398128353e-10
2.20360069133e-11
5.29613029079e-10
2.03118453929e-11
5.24279559233e-10
1.87016631922e-11
5.19368574901e-10
1.71982057148e-11
5.14852659421e-10
1.57950372112e-11
5.1070594698e-10
1.4486622089e-11
5.06903933948e-10
1.32684178668e-11
5.03423280028e-10
1.21369829813e-11
5.00241602472e-10
1.10901006464e-11
4.97337268522e-10
1.01269163205e-11
4.94689194693e-10
9.24808004319e-12
4.92276666344e-10
8.45587364738e-12
4.90079197862e-10
7.75428316604e-12
4.88076461767e-10
7.1489419626e-12
4.86248321727e-10
6.64680904476e-12
4.84574999729e-10
6.25534005291e-12
4.830373614e-10
5.98072628785e-12
4.8161712667e-10
5.82449365072e-12
4.80296272729e-10
5.77744425936e-12
4.79053664028e-10
5.81013536882e-12
5.86148767573e-12
9.52935740606e-10
9.37847222496e-11
9.76501917865e-10
2.19225430462e-10
9.93840401453e-10
2.86909315702e-10
1.00023817172e-09
3.12501006879e-10
9.96324625013e-10
3.12085885955e-10
9.84509430881e-10
2.97321118118e-10
9.6733415925e-10
2.75508516717e-10
9.4693015857e-10
2.50908721442e-10
9.24926950606e-10
2.25899675808e-10
9.02509360758e-10
2.01748335664e-10
8.80508449327e-10
1.79079423557e-10
8.59487651383e-10
1.58151065277e-10
8.39813760553e-10
1.39015383168e-10
8.21712116749e-10
1.21611992687e-10
8.05308265464e-10
1.05822453195e-10
7.90658862637e-10
9.15018732294e-11
7.77774329626e-10
7.8497050147e-11
7.6663530276e-10
6.66566248095e-11
7.57204471879e-10
5.58364894124e-11
7.49435021271e-10
4.59023819649e-11
7.43276582933e-10
3.67308319321e-11
7.38679377824e-10
2.82091625432e-11
7.35597043034e-10
2.02349784199e-11
7.33988509525e-10
1.27153988895e-11
7.33819195694e-10
5.56619467578e-12
7.3506170857e-10
-1.2890770264e-12
7.37696182614e-10
-7.91987199901e-12
7.41710360428e-10
-1.43893640652e-11
7.47099482038e-10
-2.07550654485e-11
7.53866015799e-10
-2.7069294627e-11
7.62019256681e-10
-3.33795010415e-11
7.7157480118e-10
-3.97284321373e-11
7.82553896202e-10
-4.61541268078e-11
7.94982649165e-10
-5.2689716544e-11
8.08891077746e-10
-5.93630123679e-11
8.24311969677e-10
-6.61958526374e-11
8.41279515658e-10
-7.32031847141e-11
8.59827671855e-10
-8.03918534949e-11
8.79988202855e-10
-8.77590732194e-11
9.01788352059e-10
-9.52905679647e-11
9.25248085391e-10
-1.02958383235e-10
9.50376857631e-10
-1.10718399491e-10
9.77169861066e-10
-1.18507621715e-10
1.00560373718e-09
-1.26241380761e-10
1.03563176785e-09
-1.33810663873e-10
1.06717861855e-09
-1.41079891818e-10
1.10013478605e-09
-1.47885569487e-10
1.13435101003e-09