/*--------------------------------*- C++ -*----------------------------------*\
  =========                 |
  \\      /  F ield         | OpenFOAM: The Open Source CFD Toolbox
   \\    /   O peration     | Website:  https://openfoam.org
    \\  /    A nd           | Version:  7
     \\/     M anipulation  |
\*---------------------------------------------------------------------------*/
FoamFile
{
    version     2.0;
    format      ascii;
    class       volVectorField;
    location    "1740";
    object      U;
}
// * * * * * * * * * * * * * * * * * * * * * * * * * * * * * * * * * * * * * //

dimensions      [0 1 -1 0 0 0 0];

internalField   nonuniform List<vector> 
8192
(
(0.00104346575723 0.00015653424277 0)
(0.000759336200741 0.000127595310695 0)
(0.000549346352507 8.23945315402e-05 0)
(0.00041409835623 5.28534588535e-05 0)
(0.00032628643535 3.49584561106e-05 0)
(0.000267259948499 2.40680246476e-05 0)
(0.000225954336652 1.72375809995e-05 0)
(0.000195932881381 1.27838680409e-05 0)
(0.000173388409977 9.76059716035e-06 0)
(0.000155998956376 7.62885030314e-06 0)
(0.000142296483335 6.07361669356e-06 0)
(0.000131318089141 4.90477156983e-06 0)
(0.000122409736694 4.00357507414e-06 0)
(0.000115112850821 3.29330513806e-06 0)
(0.000109096784717 2.72275545847e-06 0)
(0.000104117318473 2.25670544937e-06 0)
(9.99903532963e-05 1.87025457678e-06 0)
(9.65747393192e-05 1.54535445545e-06 0)
(9.37607549302e-05 1.26862521474e-06 0)
(9.14621821715e-05 1.02994307421e-06 0)
(8.96107314199e-05 8.21503480961e-07 0)
(8.81520390229e-05 6.37185020023e-07 0)
(8.7042742319e-05 4.72108116349e-07 0)
(8.62483082587e-05 3.22322735818e-07 0)
(8.57413994104e-05 1.84583296092e-07 0)
(8.55006300002e-05 5.61837245516e-08 0)
(8.55096095537e-05 -6.51652042877e-08 0)
(8.57562011029e-05 -1.81427767831e-07 0)
(8.62319408068e-05 -2.94312814743e-07 0)
(8.69315807714e-05 -4.05327439389e-07 0)
(8.78527260864e-05 -5.15817529943e-07 0)
(8.89955422033e-05 -6.26997556221e-07 0)
(9.03625128701e-05 -7.39971343714e-07 0)
(9.19582314473e-05 -8.55744675402e-07 0)
(9.37892095045e-05 -9.75229977263e-07 0)
(9.5863686578e-05 -1.09924278629e-06 0)
(9.81914239693e-05 -1.2284893316e-06 0)
(0.000100783463757 -1.36354415918e-06 0)
(0.000103651831867 -1.50481657231e-06 0)
(0.000106809161505 -1.65250454937e-06 0)
(0.000110268210887 -1.80653512788e-06 0)
(0.000114041247797 -1.96649084311e-06 0)
(0.000118139274034 -2.13152318517e-06 0)
(0.000122571066711 -2.3002559885e-06 0)
(0.000127342022184 -2.47068467555e-06 0)
(0.000132452803804 -2.64008083514e-06 0)
(0.000137897817825 -2.80491580221e-06 0)
(0.000143663572676 -2.9608204331e-06 0)
(0.00014972701335 -3.10260046344e-06 0)
(0.000156053960364 -3.22432570427e-06 0)
(0.000162597814242 -3.31950638386e-06 0)
(0.000169298703653 -3.38136045006e-06 0)
(0.000176083251188 -3.40316392427e-06 0)
(0.000182865103411 -3.37866480623e-06 0)
(0.000189546325377 -3.30253365688e-06 0)
(0.00019601970314 -3.17082097773e-06 0)
(0.000202171937257 -2.98139085497e-06 0)
(0.000207887644398 -2.73429537451e-06 0)
(0.00021305400163 -2.43204290014e-06 0)
(0.000217565760454 -2.07969950525e-06 0)
(0.000221330235332 -1.68476204072e-06 0)
(0.000224271773467 -1.25676630274e-06 0)
(0.000226335192477 -8.06646790216e-07 0)
(0.000227487768459 -3.45927341669e-07 0)
(0.000227719565276 1.14128229597e-07 0)
(0.000227042172897 5.63257729255e-07 0)
(0.000225486204367 9.92700334072e-07 0)
(0.000223098082538 1.39540711717e-06 0)
(0.000219936671925 1.76598540458e-06 0)
(0.00021607020656 2.10045843916e-06 0)
(0.000211573766579 2.39595696874e-06 0)
(0.000206527337317 2.65044513433e-06 0)
(0.000201014318319 2.86254465336e-06 0)
(0.0001951202636 3.03147936735e-06 0)
(0.00018893162795 3.1571246543e-06 0)
(0.000182534352514 3.24011874504e-06 0)
(0.000176012223784 3.28197801125e-06 0)
(0.00016944505394 3.28516032079e-06 0)
(0.00016290682558 3.25303732239e-06 0)
(0.000156463995063 3.18976353102e-06 0)
(0.000150174145802 3.10005731728e-06 0)
(0.000144085132225 2.98892923055e-06 0)
(0.000138234776715 2.86140072216e-06 0)
(0.000132651099504 2.7222524431e-06 0)
(0.000127352995712 2.57582882537e-06 0)
(0.000122351235 2.42591086579e-06 0)
(0.000117649649008 2.27565557081e-06 0)
(0.000113246383599 2.12759169588e-06 0)
(0.000109135118172 1.98365693753e-06 0)
(0.000105306184262 1.84526145984e-06 0)
(0.000101747544021 1.71336447777e-06 0)
(9.84456124886e-05 1.58855388484e-06 0)
(9.53859244815e-05 1.47112201638e-06 0)
(9.25536577528e-05 1.36113359848e-06 0)
(8.99340300012e-05 1.25848396494e-06 0)
(8.75125894626e-05 1.16294724622e-06 0)
(8.52754186499e-05 1.0742150402e-06 0)
(8.32092691413e-05 9.91926685567e-07 0)
(8.13016430182e-05 9.15692345365e-07 0)
(7.95408339953e-05 8.4511022536e-07 0)
(7.79159388582e-05 7.79779052896e-07 0)
(7.64168475976e-05 7.19306897278e-07 0)
(7.50342187413e-05 6.63317155726e-07 0)
(7.3759444777e-05 6.11452472356e-07 0)
(7.25846112684e-05 5.63377130187e-07 0)
(7.15024521904e-05 5.18778436383e-07 0)
(7.05063031597e-05 4.77367444266e-07 0)
(6.95900535137e-05 4.38879381356e-07 0)
(6.87480975853e-05 4.03074026746e-07 0)
(6.79752849575e-05 3.69736352751e-07 0)
(6.72668689299e-05 3.38677672227e-07 0)
(6.6618451816e-05 3.09737660246e-07 0)
(6.60259249554e-05 2.82787617419e-07 0)
(6.54854003679e-05 2.57735564295e-07 0)
(6.49931296607e-05 2.34533895216e-07 0)
(6.45454039006e-05 2.13190757376e-07 0)
(6.41384253504e-05 1.93786810141e-07 0)
(6.37681376229e-05 1.76500045824e-07 0)
(6.34299939437e-05 1.61642862235e-07 0)
(6.31186320065e-05 1.49718396402e-07 0)
(6.28274052452e-05 1.41507775705e-07 0)
(6.25476889653e-05 1.38208006038e-07 0)
(6.22678282173e-05 1.41652342794e-07 0)
(6.19715183975e-05 1.54657191432e-07 0)
(6.16353418369e-05 1.81519216262e-07 0)
(6.12254047307e-05 2.28417888407e-07 0)
(6.06948652983e-05 3.02121723434e-07 0)
(6.00051054747e-05 3.87638408537e-07 0)
(0.00121017638341 0.000302892099226 0)
(0.00116033639523 0.000315206987063 0)
(0.00102700455579 0.000238104525054 0)
(0.000887649266621 0.000171746733105 0)
(0.000767087307842 0.000124439043576 0)
(0.000668791181116 9.19100323944e-05 0)
(0.000590056887923 6.94354597165e-05 0)
(0.000527059752854 5.36045610706e-05 0)
(0.000476364438359 4.21796715587e-05 0)
(0.000435237219042 3.37264305695e-05 0)
(0.000401593525233 2.73221853091e-05 0)
(0.000373863797807 2.23643069437e-05 0)
(0.00035086517746 1.8450995242e-05 0)
(0.000331699723238 1.5308208232e-05 0)
(0.000315678927012 1.27446983216e-05 0)
(0.00030226914929 1.06239906893e-05 0)
(0.000291052450915 8.84661758337e-06 0)
(0.000281698405886 7.33863576745e-06 0)
(0.000273943664743 6.04405542502e-06 0)
(0.000267576988862 4.91974824154e-06 0)
(0.000262428169013 3.93195647156e-06 0)
(0.000258359726576 3.05385531784e-06 0)
(0.000255260629528 2.2638210072e-06 0)
(0.000253041483892 1.54418004893e-06 0)
(0.000251630818169 8.80292228765e-07 0)
(0.000250972186316 2.59868995484e-07 0)
(0.000251021889831 -3.27539227798e-07 0)
(0.000251747171068 -8.90930725934e-07 0)
(0.000253124766841 -1.43814792094e-06 0)
(0.000255139738806 -1.97610511302e-06 0)
(0.000257784514436 -2.51095978185e-06 0)
(0.000261058083318 -3.04823727061e-06 0)
(0.000264965301731 -3.59291551602e-06 0)
(0.000269516263361 -4.14947320246e-06 0)
(0.000274725696091 -4.72190225563e-06 0)
(0.000280612344746 -5.31368361624e-06 0)
(0.000287198297928 -5.92772365296e-06 0)
(0.00029450821409 -6.56624739641e-06 0)
(0.000302568398339 -7.23064417786e-06 0)
(0.000311405678048 -7.92126149459e-06 0)
(0.000321046023137 -8.63714444432e-06 0)
(0.000331512857821 -9.3757213802e-06 0)
(0.000342825016474 -1.01324421793e-05 0)
(0.000354994310012 -1.09003841751e-05 0)
(0.000368022693411 -1.16698526368e-05 0)
(0.000381899062423 -1.2428017123e-05 0)
(0.000396595759362 -1.31586405212e-05 0)
(0.000412064933028 -1.38419708522e-05 0)
(0.000428234971319 -1.44548724235e-05 0)
(0.000445007297337 -1.49712672821e-05 0)
(0.000462253876898 -1.53629362391e-05 0)
(0.000479815811807 -1.56006909073e-05 0)
(0.000497503376596 -1.56558804444e-05 0)
(0.000515097792622 -1.55021506736e-05 0)
(0.000532354929555 -1.51173413482e-05 0)
(0.000549010995654 -1.44853935628e-05 0)
(0.000564790137358 -1.35981337071e-05 0)
(0.000579413716085 -1.24567827979e-05 0)
(0.000592610852175 -1.10729996644e-05 0)
(0.000604129614209 -9.46922252838e-06 0)
(0.000613748009938 -7.67807803624e-06 0)
(0.000621283772998 -5.74073050323e-06 0)
(0.00062660193011 -3.70424904658e-06 0)
(0.00062961933876 -1.61831175307e-06 0)
(0.00063030579378 4.68246990807e-07 0)
(0.000628681828523 2.51047117454e-06 0)
(0.000624813859876 4.46938734369e-06 0)
(0.000618807675894 6.31297840264e-06 0)
(0.000610801335743 8.01610728055e-06 0)
(0.000600958371946 9.55969900794e-06 0)
(0.000589461830043 1.09296236853e-05 0)
(0.000576509283642 1.21156730529e-05 0)
(0.00056230865038 1.31108831251e-05 0)
(0.000547074461306 1.39112955895e-05 0)
(0.00053102420748 1.45161071277e-05 0)
(0.000514374481263 1.49280468676e-05 0)
(0.00049733680622 1.51537635584e-05 0)
(0.000480113253928 1.52040087814e-05 0)
(0.00046289211934 1.50934664785e-05 0)
(0.000445844021484 1.48401808342e-05 0)
(0.000429118792755 1.4464639959e-05 0)
(0.000412843428135 1.39886508929e-05 0)
(0.000397121219803 1.34341733231e-05 0)
(0.000382032046016 1.28222656238e-05 0)
(0.000367633653456 1.21722511115e-05 0)
(0.000353963690789 1.15011553048e-05 0)
(0.000341042222209 1.08234131373e-05 0)
(0.000328874464195 1.0150808896e-05 0)
(0.000317453531413 9.4925930019e-06 0)
(0.000306763033022 8.85571625649e-06 0)
(0.000296779416434 8.24512836227e-06 0)
(0.000287474004074 7.66409882217e-06 0)
(0.000278814706439 7.11453052727e-06 0)
(0.000270767421211 6.59724752664e-06 0)
(0.000263297144751 6.11224722151e-06 0)
(0.000256368830896 5.65891367107e-06 0)
(0.000249948034971 5.2361927908e-06 0)
(0.000244001380115 4.84273272911e-06 0)
(0.000238496879997 4.47699382228e-06 0)
(0.000233404147818 4.13733294246e-06 0)
(0.000228694517031 3.82206683663e-06 0)
(0.00022434109476 3.52951868684e-06 0)
(0.00022031876485 3.25805152527e-06 0)
(0.00021660415392 3.00609163436e-06 0)
(0.000213175570682 2.77214449598e-06 0)
(0.000210012926201 2.55480545764e-06 0)
(0.000207097640562 2.3527668774e-06 0)
(0.00020441253953 2.16482328349e-06 0)
(0.00020194174317 1.98987586052e-06 0)
(0.000199670546952 1.82693752863e-06 0)
(0.000197585294437 1.67513984849e-06 0)
(0.000195673239281 1.53374314202e-06 0)
(0.00019392239276 1.40215142412e-06 0)
(0.000192321351286 1.27993418755e-06 0)
(0.000190859096373 1.16685767359e-06 0)
(0.000189524757029 1.06292923227e-06 0)
(0.000188307321678 9.68459713044e-07 0)
(0.000187195283457 8.8415086546e-07 0)
(0.000186176199658 8.11217571023e-07 0)
(0.000185236144884 7.51558712926e-07 0)
(0.000184359042511 7.07995176561e-07 0)
(0.000183525881773 6.84596495061e-07 0)
(0.000182713897477 6.87108097734e-07 0)
(0.000181895979767 7.2342854937e-07 0)
(0.000181041086342 8.03817865567e-07 0)
(0.000180117696291 9.39446847143e-07 0)
(0.000179106140081 1.13318915869e-06 0)
(0.000178023912784 1.32855889269e-06 0)
(0.00122478086558 0.000267934844359 0)
(0.00124107733294 0.000383707744838 0)
(0.0011961602431 0.000347852672621 0)
(0.00111337116474 0.000284142929253 0)
(0.00102033210355 0.000225643843243 0)
(0.000930744951459 0.000178588486957 0)
(0.00085004081641 0.000142195408612 0)
(0.000779614401343 0.00011426813755 0)
(0.000719097650978 9.2728135347e-05 0)
(0.000667465507233 7.59373055255e-05 0)
(0.000623539985635 6.26805017907e-05 0)
(0.000586201543215 5.20741367461e-05 0)
(0.000554464059276 4.34772466212e-05 0)
(0.000527489447576 3.64220001784e-05 0)
(0.000504577782141 3.05633460047e-05 0)
(0.000485149304485 2.56435769757e-05 0)
(0.000468725395049 2.14676183886e-05 0)
(0.000454911277122 1.78857779615e-05 0)
(0.000443381284414 1.47816279628e-05 0)
(0.00043386670455 1.20634132548e-05 0)
(0.000426145905737 9.65789294178e-06 0)
(0.000420036376033 7.50587492034e-06 0)
(0.000415388320095 5.55893953815e-06 0)
(0.000412079506099 3.7770076218e-06 0)
(0.00041001110923 2.12651516169e-06 0)
(0.000409104347154 5.79029469993e-07 0)
(0.00040929774396 -8.89808846085e-07 0)
(0.000410544890585 -2.30109595557e-06 0)
(0.000412812596345 -3.67328922591e-06 0)
(0.000416079347192 -5.02268947725e-06 0)
(0.000420333998218 -6.36380262557e-06 0)
(0.000425574636996 -7.7096001546e-06 0)
(0.000431807561252 -9.07169070386e-06 0)
(0.000439046317879 -1.04604088172e-05 0)
(0.000447310751187 -1.18848221695e-05 0)
(0.000456626007319 -1.33526547195e-05 0)
(0.000467021439142 -1.48701203213e-05 0)
(0.000478529352431 -1.64416592736e-05 0)
(0.000491183530371 -1.80695697159e-05 0)
(0.000505017470575 -1.97535270328e-05 0)
(0.000520062268316 -2.14899886708e-05 0)
(0.000536344083689 -2.32714897656e-05 0)
(0.000553881141396 -2.50858482203e-05 0)
(0.000572680233152 -2.69153169308e-05 0)
(0.000592732727271 -2.87357463193e-05 0)
(0.000614010140941 -3.05158504941e-05 0)
(0.000636459398946 -3.22167020233e-05 0)
(0.00065999798658 -3.37916063117e-05 0)
(0.000684509297532 -3.51865178731e-05 0)
(0.000709838567686 -3.6341146045e-05 0)
(0.000735789855169 -3.71908494366e-05 0)
(0.000762124556107 -3.76693360039e-05 0)
(0.000788561917548 -3.77120824142e-05 0)
(0.000814781918429 -3.72602859187e-05 0)
(0.000840430745319 -3.62650910617e-05 0)
(0.000865128913279 -3.46918014986e-05 0)
(0.000888481893502 -3.25237756284e-05 0)
(0.000910092911915 -2.97656723449e-05 0)
(0.000929577359853 -2.64456369855e-05 0)
(0.000946577993814 -2.26159345517e-05 0)
(0.000960779821237 -1.83515547337e-05 0)
(0.00097192336188 -1.37465365812e-05 0)
(0.000979814962755 -8.90819433432e-06 0)
(0.000984333110949 -3.94993133137e-06 0)
(0.000985430214934 1.01628491978e-06 0)
(0.000983129999959 5.88657650118e-06 0)
(0.00097752133221 1.0569867602e-05 0)
(0.000968749744739 1.4990205668e-05 0)
(0.000957008042817 1.90868460407e-05 0)
(0.000942527136243 2.28127437879e-05 0)
(0.000925567792695 2.6132368404e-05 0)
(0.000906413509251 2.90196550121e-05 0)
(0.000885364315878 3.14566194537e-05 0)
(0.000862731113609 3.34328390908e-05 0)
(0.00083883011252 3.49457057602e-05 0)
(0.000813977045565 3.60011290422e-05 0)
(0.000788481049031 3.66142424559e-05 0)
(0.000762638352037 3.6809671704e-05 0)
(0.000736726131503 3.66210551734e-05 0)
(0.000710997004981 3.60897176539e-05 0)
(0.000685674625264 3.52626178303e-05 0)
(0.000660950720962 3.4189853571e-05 0)
(0.000636983739982 3.29220770911e-05 0)
(0.000613899053171 3.15081450909e-05 0)
(0.000591790510135 2.99932352833e-05 0)
(0.000570723034949 2.84175422648e-05 0)
(0.000550735910917 2.6815557084e-05 0)
(0.000531846419336 2.52158576007e-05 0)
(0.00051405354862 2.36412953438e-05 0)
(0.000497341558148 2.21094545379e-05 0)
(0.000481683250877 2.06332696367e-05 0)
(0.000467042870497 1.92217096456e-05 0)
(0.000453378588293 1.78804623059e-05 0)
(0.000440644580694 1.66125744939e-05 0)
(0.000428792722256 1.54190239977e-05 0)
(0.000417773932514 1.42992120497e-05 0)
(0.000407539221449 1.3251375472e-05 0)
(0.000398040479394 1.22729233517e-05 0)
(0.000389231054995 1.13607062626e-05 0)
(0.000381066160727 1.05112274855e-05 0)
(0.000373503140494 9.72080568922e-06 0)
(0.000366501628618 8.98569805552e-06 0)
(0.000360023624529 8.30219179275e-06 0)
(0.000354033502874 7.66667102884e-06 0)
(0.000348497974664 7.0756649476e-06 0)
(0.000343386011556 6.52588219985e-06 0)
(0.000338668742283 6.01423575313e-06 0)
(0.000334319327609 5.53786182153e-06 0)
(0.000330312817914 5.09413599226e-06 0)
(0.000326625995474 4.68068948834e-06 0)
(0.000323237201712 4.29542833649e-06 0)
(0.000320126147963 3.93655838825e-06 0)
(0.000317273706732 3.60261934712e-06 0)
(0.000314661678886 3.29253152645e-06 0)
(0.000312272530858 3.00565968353e-06 0)
(0.000310089094994 2.74189925431e-06 0)
(0.000308094225983 2.5017912484e-06 0)
(0.000306270408054 2.28667301541e-06 0)
(0.000304599313091 2.09887203967e-06 0)
(0.000303061322925 1.94194735737e-06 0)
(0.000301635057165 1.82097317019e-06 0)
(0.000300297005103 1.74283017831e-06 0)
(0.000299021472601 1.71639052317e-06 0)
(0.000297781269142 1.75226711941e-06 0)
(0.000296549941067 1.86120123255e-06 0)
(0.00029530696782 2.048427767e-06 0)
(0.000294047072014 2.29566149379e-06 0)
(0.000292787216412 2.50817051634e-06 0)
(0.00122192162953 0.000221232343313 0)
(0.00125335993065 0.00038267545901 0)
(0.00125098740205 0.000396174552225 0)
(0.00121323924655 0.000356358259103 0)
(0.00115514033845 0.000304566457976 0)
(0.0010890959808 0.000255297356833 0)
(0.00102258112026 0.000212705508982 0)
(0.000959557620078 0.000177207927081 0)
(0.000901851643713 0.000148011047309 0)
(0.000850084090906 0.000124054065079 0)
(0.00080423534114 0.000104337988827 0)
(0.00076397134591 8.80190628957e-05 0)
(0.000728825407624 7.44157185865e-05 0)
(0.000698295937842 6.29875859821e-05 0)
(0.000671896482244 5.33088579662e-05 0)
(0.000649179197742 4.50438043988e-05 0)
(0.000629743920375 3.79265555462e-05 0)
(0.000613239680557 3.17451769411e-05 0)
(0.000599362484959 2.63293963586e-05 0)
(0.000587851456019 2.15412334814e-05 0)
(0.000578484445086 1.72678631052e-05 0)
(0.000571073690354 1.34161707408e-05 0)
(0.000565461789886 9.9085826627e-06 0)
(0.000561518096797 6.67985520266e-06 0)
(0.000559135557567 3.67458847786e-06 0)
(0.000558227970965 8.45290911936e-07 0)
(0.000558727624924 -1.84913358384e-06 0)
(0.00056058325866 -4.44456260322e-06 0)
(0.000563758298723 -6.97257779533e-06 0)
(0.000568229319622 -9.46118028198e-06 0)
(0.000573984676725 -1.19353256747e-05 0)
(0.000581023261225 -1.44173040522e-05 0)
(0.000589353328027 -1.69269793185e-05 0)
(0.000598991346325 -1.94818941942e-05 0)
(0.000609960820484 -2.20972407619e-05 0)
(0.000622291025647 -2.47856911697e-05 0)
(0.000636015598439 -2.75570792865e-05 0)
(0.000651170918809 -3.04179216192e-05 0)
(0.000667794215054 -3.33707658606e-05 0)
(0.000685921321649 -3.64133584454e-05 0)
(0.00070558402011 -3.95376304872e-05 0)
(0.000726806899072 -4.27285154051e-05 0)
(0.000749603683664 -4.59626339492e-05 0)
(0.000773973009519 -4.92069137106e-05 0)
(0.00079989365684 -5.24172516284e-05 0)
(0.000827319317966 -5.55373763493e-05 0)
(0.000856173049385 -5.8498117706e-05 0)
(0.000886341654465 -6.1217331288e-05 0)
(0.000917670349552 -6.36007428835e-05 0)
(0.000949958169895 -6.55439517339e-05 0)
(0.000982954652651 -6.69357508212e-05 0)
(0.00101635836774 -6.76627846263e-05 0)
(0.00104981783213 -6.76153914519e-05 0)
(0.00108293523113 -6.66943073688e-05 0)
(0.0011152731932 -6.48177891415e-05 0)
(0.00114636465264 -6.19286628338e-05 0)
(0.0011757256183 -5.80007954008e-05 0)
(0.00120287045304 -5.30444461215e-05 0)
(0.00122732903094 -4.7109836679e-05 0)
(0.00124866484194 -4.02881366925e-05 0)
(0.00126649277156 -3.27090774773e-05 0)
(0.00128049500597 -2.45347690474e-05 0)
(0.00129043346904 -1.59500191253e-05 0)
(0.00129615750326 -7.15029576407e-06 0)
(0.001297606137 1.67089131999e-06 0)
(0.0012948050935 1.03331950796e-05 0)
(0.00128785950785 1.86774562284e-05 0)
(0.00127694388846 2.65697657086e-05 0)
(0.00126229099188 3.39018152483e-05 0)
(0.00124418097596 4.05886180341e-05 0)
(0.00122293162001 4.6565106434e-05 0)
(0.001198889804 5.17829228576e-05 0)
(0.00117242400535 5.62082456269e-05 0)
(0.00114391734713 5.9820972879e-05 0)
(0.00111376070028 6.26151186157e-05 0)
(0.00108234547738 6.45999055169e-05 0)
(0.00105005601058 6.58008308648e-05 0)
(0.00101726170572 6.62599898244e-05 0)
(0.000984309417592 6.60351543272e-05 0)
(0.000951516623845 6.51974518982e-05 0)
(0.000919165955971 6.38278492031e-05 0)
(0.000887501493265 6.20129123382e-05 0)
(0.00085672699561 5.98404252629e-05 0)
(0.000827006011537 5.73954012259e-05 0)
(0.000798463604986 5.47568671434e-05 0)
(0.000771189326742 5.19956070281e-05 0)
(0.000745241017113 4.91728737214e-05 0)
(0.000720649049037 4.63399526378e-05 0)
(0.000697420682554 4.35383935212e-05 0)
(0.000675544280229 4.08007088873e-05 0)
(0.000654993212305 3.81513536542e-05 0)
(0.000635729349973 3.56078346865e-05 0)
(0.000617706100666 3.31818380495e-05 0)
(0.000600870979979 3.08802990027e-05 0)
(0.000585167742197 2.87063701572e-05 0)
(0.000570538107897 2.66602666644e-05 0)
(0.000556923135421 2.47399832344e-05 0)
(0.000544264285467 2.29418883747e-05 0)
(0.000532504226728 2.12612069439e-05 0)
(0.000521587426883 1.96924051323e-05 0)
(0.00051146056839 1.82294925058e-05 0)
(0.000502072823224 1.68662554197e-05 0)
(0.000493376015461 1.55964347069e-05 0)
(0.000485324695616 1.44138592261e-05 0)
(0.000477876146147 1.33125451264e-05 0)
(0.000470990333544 1.22867694182e-05 0)
(0.000464629818928 1.13311250132e-05 0)
(0.000458759636031 1.04405635406e-05 0)
(0.000453347142856 9.61043129184e-06 0)
(0.000448361851026 8.83650327315e-06 0)
(0.000443775234887 8.11501986547e-06 0)
(0.000439560520781 7.44273066067e-06 0)
(0.000435692455537 6.81694996923e-06 0)
(0.000432147052254 6.23562887568e-06 0)
(0.000428901311025 5.69744880732e-06 0)
(0.000425932912768 5.20194179893e-06 0)
(0.000423219886409 4.74964191988e-06 0)
(0.000420740254376 4.3422704238e-06 0)
(0.000418471670698 3.98295165034e-06 0)
(0.000416391082846 3.67644440671e-06 0)
(0.000414474477798 3.42934585409e-06 0)
(0.000412696821662 3.2501649528e-06 0)
(0.000411032379358 3.14903021931e-06 0)
(0.000409455710327 3.13650007214e-06 0)
(0.00040794374795 3.22025945576e-06 0)
(0.000406479240708 3.39685121937e-06 0)
(0.000405054328985 3.63204692677e-06 0)
(0.000403666003912 3.81996688975e-06 0)
(0.00121692133314 0.000182389374404 0)
(0.00124903399873 0.000357967441872 0)
(0.00126554246673 0.000406746604079 0)
(0.00125563714625 0.000393439657674 0)
(0.00122509712819 0.000356123959718 0)
(0.00118223524738 0.000312646067262 0)
(0.00113360328497 0.000270503594969 0)
(0.00108357787522 0.000232458724455 0)
(0.00103484746716 0.000199196607842 0)
(0.000988943749577 0.000170539748549 0)
(0.00094665017116 0.00014599460733 0)
(0.000908284475773 0.000124992109017 0)
(0.000873885169813 0.000106987890973 0)
(0.000843331312465 9.14987152775e-05 0)
(0.000816417947562 7.81105240525e-05 0)
(0.000792902700467 6.647464516e-05 0)
(0.000772533910444 5.62997578423e-05 0)
(0.000755067077203 4.73430238398e-05 0)
(0.000740273994349 3.9401804569e-05 0)
(0.000727947365213 3.23064605804e-05 0)
(0.000717902675738 2.59143142872e-05 0)
(0.000709978443495 2.01046851099e-05 0)
(0.00070403554305 1.47748485525e-05 0)
(0.000699956041068 9.83676457496e-06 0)
(0.000697641804861 5.21443565337e-06 0)
(0.000697013040285 8.41777028974e-07 0)
(0.000698006846116 -3.33909628686e-06 0)
(0.000700575825839 -7.37922896957e-06 0)
(0.000704686775887 -1.13239158645e-05 0)
(0.000710319449751 -1.52135499036e-05 0)
(0.000717465378385 -1.90842532017e-05 0)
(0.000726126722245 -2.29683146528e-05 0)
(0.000736315123284 -2.68944445411e-05 0)
(0.000748050518518 -3.08878485474e-05 0)
(0.000761359870653 -3.49701166456e-05 0)
(0.000776275765196 -3.9158916654e-05 0)
(0.000792834817452 -4.34674780422e-05 0)
(0.000811075827143 -4.79038494428e-05 0)
(0.000831037613567 -5.24699143448e-05 0)
(0.000852756461387 -5.71601549178e-05 0)
(0.00087626310763 -6.19601659453e-05 0)
(0.000901579206542 -6.68449415236e-05 0)
(0.000928713223274 -7.17769891344e-05 0)
(0.000957655733384 -7.67043705644e-05 0)
(0.000988374146768 -8.15588274978e-05 0)
(0.0010208069356 -8.62542182856e-05 0)
(0.00105485752853 -9.06855637172e-05 0)
(0.00109038813722 -9.47290583847e-05 0)
(0.00112721390011 -9.82434288999e-05 0)
(0.0011650978476 -0.000101072984596 0)
(0.00120374728925 -0.000103052589569 0)
(0.00124281226761 -0.000104014583057 0)
(0.00128188668574 -0.000103797416336 0)
(0.00132051258465 -0.00010225551903 0)
(0.0013581878372 -9.92697296231e-05 0)
(0.00139437727943 -9.47575617909e-05 0)
(0.00142852706655 -8.8682588935e-05 0)
(0.00146008183235 -8.10621967406e-05 0)
(0.00148850400133 -7.19727825713e-05 0)
(0.00151329427944 -6.15512377002e-05 0)
(0.00153401192334 -4.99915178161e-05 0)
(0.00155029299595 -3.75356150737e-05 0)
(0.00156186470255 -2.4459334597e-05 0)
(0.00156855424123 -1.10545578813e-05 0)
(0.00157029135587 2.38938751346e-06 0)
(0.00156710475821 1.5602309983e-05 0)
(0.00155911357293 2.83450701879e-05 0)
(0.00154651567595 4.04156147377e-05 0)
(0.00152957496021 5.16495147814e-05 0)
(0.00150860913509 6.19166866593e-05 0)
(0.00148397890313 7.11165453378e-05 0)
(0.00145607862968 7.91734873312e-05 0)
(0.00142532814244 8.60338771713e-05 0)
(0.00139216507497 9.16649752033e-05 0)
(0.00135703715655 9.60555894571e-05 0)
(0.00132039402099 9.92177021919e-05 0)
(0.00128267841915 0.000101188014226 0)
(0.00124431708533 0.00010202835984 0)
(0.00120571181282 0.000101824263649 0)
(0.00116723144777 0.000100681424562 0)
(0.0011292054747 9.87204454837e-05 0)
(0.0010919196694 9.60705170063e-05 0)
(0.00105561400951 9.2862916039e-05 0)
(0.00102048274562 8.92251011489e-05 0)
(0.000986676314521 8.5275952297e-05 0)
(0.000954304650158 8.11224163461e-05 0)
(0.000923441415888 7.68575643442e-05 0)
(0.000894128718004 7.2559887905e-05 0)
(0.000866381937962 6.82935683041e-05 0)
(0.000840194412111 6.41094291094e-05 0)
(0.00081554177611 6.00463072085e-05 0)
(0.000792385866557 5.61326256285e-05 0)
(0.000770678131129 5.23880069692e-05 0)
(0.000750362541 4.88248183163e-05 0)
(0.00073137802759 4.54495815444e-05 0)
(0.000713660482771 4.22642158121e-05 0)
(0.000697144370398 3.92671020956e-05 0)
(0.000681763999873 3.64539747517e-05 0)
(0.00066745451147 3.38186539332e-05 0)
(0.000654152619787 3.13536372401e-05 0)
(0.000641797157037 2.9050570448e-05 0)
(0.00063032945273 2.69006168923e-05 0)
(0.000619693581068 2.48947436419e-05 0)
(0.000609836502367 2.30239407745e-05 0)
(0.000600708120249 2.12793879768e-05 0)
(0.000592261272219 1.96525808063e-05 0)
(0.000584451667641 1.81354271473e-05 0)
(0.000577237783955 1.67203229727e-05 0)
(0.000570580729277 1.54002152842e-05 0)
(0.000564444077238 1.41686592492e-05 0)
(0.000558793677977 1.3019875861e-05 0)
(0.000553597447675 1.1948816065e-05 0)
(0.000548825137897 1.0951236949e-05 0)
(0.000544448085406 1.00237953599e-05 0)
(0.000540438943187 9.16416375193e-06 0)
(0.000536771394528 8.37117200768e-06 0)
(0.0005334198546 7.64497646769e-06 0)
(0.000530359168844 6.98725234688e-06 0)
(0.000527564325719 6.40139541844e-06 0)
(0.000525010214485 5.8926988305e-06 0)
(0.000522671478458 5.468431857e-06 0)
(0.000520522541825 5.1376713749e-06 0)
(0.000518537921107 4.91058686328e-06 0)
(0.000516692953752 4.79658034707e-06 0)
(0.000514965014154 4.80008221255e-06 0)
(0.000513334881444 4.91166981831e-06 0)
(0.000511786353309 5.09066960374e-06 0)
(0.000510298638797 5.23738491853e-06 0)
(0.00121283291574 0.000152635118844 0)
(0.00124166723962 0.000326774687531 0)
(0.00126566477329 0.000397433329579 0)
(0.00127189672118 0.000406426277975 0)
(0.00126062298979 0.000384951061793 0)
(0.00123648482005 0.000350818988223 0)
(0.00120431852871 0.000313128899997 0)
(0.00116795605962 0.000276221270442 0)
(0.00113013213359 0.00024198836815 0)
(0.00109268671843 0.000211097093279 0)
(0.00105679872522 0.000183618806644 0)
(0.00102318127712 0.000159351025764 0)
(0.000992228968976 0.000137980561081 0)
(0.000964123987686 0.000119164856773 0)
(0.000938910726839 0.000102570981514 0)
(0.00091654741455 8.78927205674e-05 0)
(0.000896941385211 7.48564755988e-05 0)
(0.000879972885578 6.32216131182e-05 0)
(0.000865510924055 5.27782342326e-05 0)
(0.000853423641144 4.33439179774e-05 0)
(0.000843584933366 3.4760229659e-05 0)
(0.000835878533151 2.68893782667e-05 0)
(0.000830200374812 1.96111908585e-05 0)
(0.000826459816623 1.28204597909e-05 0)
(0.000824580108085 6.42466326544e-06 0)
(0.000824498365743 3.42035220591e-07 0)
(0.000826165231629 -5.5000464327e-06 0)
(0.000829544326777 -1.11663729755e-05 0)
(0.000834611577505 -1.67149908711e-05 0)
(0.000841354454892 -2.21980432427e-05 0)
(0.000849771140081 -2.76623895312e-05 0)
(0.00085986961797 -3.31500145513e-05 0)
(0.000871666687157 -3.86982278485e-05 0)
(0.000885186862803 -4.43396474542e-05 0)
(0.000900461139334 -5.01019559305e-05 0)
(0.000917525571106 -5.60074112213e-05 0)
(0.000936419621085 -6.20720910612e-05 0)
(0.000957184220249 -6.83048482292e-05 0)
(0.000979859474313 -7.47059563662e-05 0)
(0.00100448195019 -8.12654340429e-05 0)
(0.00103108147384 -8.79610510281e-05 0)
(0.00105967737549 -9.47560479465e-05 0)
(0.00109027413096 -0.000101596642229 0)
(0.00112285637166 -0.000108409451726 0)
(0.0011573832763 -0.000115099043729 0)
(0.00119378241819 -0.000121545907878 0)
(0.00123194322766 -0.000127605247219 0)
(0.00127171034094 -0.000133107063032 0)
(0.00131287723941 -0.000137858047259 0)
(0.00135518072317 -0.00014164575462 0)
(0.0013982968823 -0.000144245373093 0)
(0.00144183929179 -0.000145429136028 0)
(0.00148536012241 -0.000144978057068 0)
(0.0015283547101 -0.000142695306817 0)
(0.00157026987763 -0.000138420301746 0)
(0.00161051601669 -0.000132042509995 0)
(0.00164848269063 -0.000123514041739 0)
(0.0016835573334 -0.00011286009543 0)
(0.00171514642592 -0.00010018609357 0)
(0.00174269819006 -8.56799248427e-05 0)
(0.0017657252964 -6.96075466909e-05 0)
(0.00178382550795 -5.23008477667e-05 0)
(0.00179669794873 -3.4138239484e-05 0)
(0.00180415306564 -1.55203120289e-05 0)
(0.00180611527632 3.1557997364e-06 0)
(0.00180261848513 2.15192572726e-05 0)
(0.00179379586801 3.92418838882e-05 0)
(0.00177986625623 5.60462571365e-05 0)
(0.0017611196585 7.17061230013e-05 0)
(0.00173790383091 8.60416594849e-05 0)
(0.00171061275179 9.89128048782e-05 0)
(0.00167967695422 0.00011021321495 0)
(0.00164555515236 0.000119866351647 0)
(0.00160872639641 0.000127824235848 0)
(0.00156968200729 0.000134068548377 0)
(0.00152891675927 0.000138613040583 0)
(0.00148691917043 0.000141505783043 0)
(0.00144416122077 0.000142829794687 0)
(0.0014010881982 0.000142701048323 0)
(0.00135810955547 0.000141263576798 0)
(0.0013155916016 0.000138682154239 0)
(0.00127385259073 0.000135133563473 0)
(0.00123316040914 0.000130797655051 0)
(0.00119373271291 0.000125849271048 0)
(0.00115573911367 0.000120451766121 0)
(0.00111930488058 0.000114752457659 0)
(0.00108451560908 0.000108879990508 0)
(0.00105142236695 0.000102943367155 0)
(0.00102004692761 9.70322772234e-05 0)
(0.000990386808377 9.12183371297e-05 0)
(0.0009624199304 8.55568878027e-05 0)
(0.000936108797063 8.00890650672e-05 0)
(0.000911404148205 7.48439312152e-05 0)
(0.000888248089364 6.98405244691e-05 0)
(0.000866576722439 6.50897389851e-05 0)