/*--------------------------------*- C++ -*----------------------------------*\
  =========                 |
  \\      /  F ield         | OpenFOAM: The Open Source CFD Toolbox
   \\    /   O peration     | Website:  https://openfoam.org
    \\  /    A nd           | Version:  7
     \\/     M anipulation  |
\*---------------------------------------------------------------------------*/
FoamFile
{
    version     2.0;
    format      ascii;
    class       volScalarField;
    location    "3000";
    object      Ci;
}
// * * * * * * * * * * * * * * * * * * * * * * * * * * * * * * * * * * * * * //

dimensions      [0 -3 0 0 1 0 0];

internalField   nonuniform List<scalar> 
8192
(
9.99999999152
10.00000003
10.0000000924
10.0000001863
10.0000003185
10.0000004782
10.0000006546
10.0000008395
10.0000010279
10.000001215
10.0000013976
10.0000015715
10.0000017343
10.0000018825
10.0000020146
10.0000021274
10.0000022202
10.0000022906
10.0000023388
10.000002363
10.0000023644
10.0000023417
10.0000022972
10.0000022301
10.0000021436
10.0000020372
10.0000019146
10.0000017758
10.0000016249
10.0000014616
10.0000012906
10.000001111
10.0000009275
10.0000007386
10.0000005486
10.0000003552
10.0000001622
9.99999996647
9.99999977136
9.99999957296
9.99999937433
9.99999917106
9.99999896629
9.99999875555
9.99999854248
9.99999832289
9.99999810117
9.99999787362
9.99999764541
9.99999741325
9.99999718304
9.99999695189
9.99999672651
9.99999650476
9.99999629481
9.99999609618
9.99999591961
9.99999576739
9.99999565362
9.99999558348
9.99999557348
9.99999562934
9.99999576606
9.9999959849
9.99999629386
9.99999668531
9.9999971578
9.99999769543
9.99999829065
9.99999892458
9.99999958906
10.0000002669
10.0000009525
10.0000016317
10.0000023018
10.0000029521
10.0000035824
10.0000041854
10.0000047638
10.0000053136
10.0000058396
10.0000063404
10.0000068224
10.0000072855
10.0000077365
10.0000081755
10.0000086087
10.0000090358
10.0000094614
10.0000098842
10.0000103072
10.000010728
10.0000111477
10.000011563
10.0000119737
10.0000123757
10.0000127682
10.0000131468
10.0000135102
10.0000138547
10.0000141788
10.0000144794
10.0000147552
10.0000150041
10.0000152252
10.0000154172
10.0000155797
10.0000157122
10.0000158147
10.0000158878
10.0000159315
10.0000159472
10.0000159352
10.0000158976
10.0000158348
10.0000157494
10.0000156417
10.0000155146
10.0000153681
10.0000152046
10.0000150234
10.0000148264
10.0000146124
10.000014385
10.0000141472
10.000013911
10.0000136963
10.0000135449
9.9999999988
10.0000000532
10.0000001184
10.0000002048
10.0000003177
10.0000004535
10.0000006074
10.0000007742
10.0000009492
10.0000011273
10.0000013047
10.0000014769
10.000001641
10.0000017932
10.0000019314
10.0000020525
10.0000021554
10.0000022377
10.0000022991
10.0000023378
10.0000023546
10.0000023483
10.0000023209
10.0000022715
10.0000022029
10.0000021148
10.0000020105
10.00000189
10.0000017571
10.0000016118
10.0000014581
10.0000012959
10.0000011289
10.0000009565
10.0000007823
10.0000006048
10.0000004272
10.0000002472
10.0000000675
9.99999988529
9.99999970276
9.99999951657
9.99999932901
9.99999913658
9.99999894193
9.99999874176
9.99999853929
9.99999833162
9.99999812256
9.99999790958
9.99999769709
9.99999748294
9.99999727228
9.99999706374
9.99999686381
9.99999667271
9.99999649923
9.9999963461
9.99999622498
9.99999614116
9.99999610821
9.99999613196
9.99999622469
9.99999638872
9.99999663071
9.99999694602
9.9999973338
9.99999778278
9.99999828701
9.99999883238
9.99999941184
10.0000000119
10.0000006268
10.000001245
10.0000018626
10.0000024702
10.000003066
10.0000036434
10.0000042027
10.00000474
10.000005258
10.0000057552
10.0000062357
10.0000066996
10.0000071517
10.0000075926
10.0000080271
10.0000084553
10.000008881
10.0000093035
10.0000097254
10.000010145
10.0000105632
10.0000109773
10.0000113869
10.0000117887
10.0000121815
10.0000125618
10.0000129279
10.0000132766
10.0000136063
10.000013914
10.0000141984
10.0000144574
10.0000146899
10.0000148948
10.0000150713
10.0000152191
10.0000153379
10.000015428
10.0000154896
10.0000155237
10.0000155307
10.0000155123
10.000015469
10.0000154031
10.000015315
10.0000152073
10.0000150801
10.0000149358
10.0000147737
10.0000145955
10.0000144006
10.0000141919
10.0000139728
10.0000137499
10.0000135317
10.0000133537
10.0000000007
10.0000000711
10.0000001434
10.0000002219
10.0000003155
10.0000004245
10.0000005484
10.0000006852
10.0000008333
10.0000009888
10.0000011493
10.0000013105
10.0000014699
10.0000016231
10.0000017682
10.0000019014
10.0000020216
10.0000021254
10.0000022128
10.0000022809
10.0000023307
10.0000023601
10.0000023708
10.0000023613
10.0000023343
10.0000022885
10.0000022275
10.0000021503
10.0000020609
10.0000019584
10.0000018474
10.0000017265
10.0000016005
10.0000014676
10.0000013326
10.000001193
10.0000010532
10.0000009101
10.0000007677
10.0000006222
10.0000004775
10.0000003291
10.0000001808
10.0000000279
9.99999987434
9.99999971552
9.99999955571
9.9999993904
9.99999922434
9.99999905314
9.99999888198
9.99999870658
9.99999853268
9.99999835638
9.99999818441
9.99999801389
9.99999785332
9.99999770168
9.99999756985
9.99999745893
9.99999738177
9.99999734051
9.99999734784
9.99999740425
9.99999751914
9.99999768862
9.99999791695
9.99999819563
9.99999852486
9.99999889378
9.99999930101
9.99999973552
10.0000001958
10.0000006714
10.0000011612
10.0000016556
10.000002154
10.0000026483
10.000003139
10.0000036199
10.0000040929
10.0000045538
10.0000050057
10.0000054461
10.0000058792
10.0000063032
10.0000067226
10.0000071361
10.0000075475
10.0000079555
10.0000083629
10.0000087679
10.0000091719
10.0000095726
10.0000099703
10.000010362
10.0000107471
10.0000111224
10.0000114868
10.0000118372
10.0000121722
10.0000124891
10.0000127864
10.0000130622
10.0000133152
10.0000135442
10.000013748
10.0000139264
10.0000140784
10.0000142045
10.0000143041
10.0000143783
10.0000144268
10.0000144514
10.0000144519
10.0000144305
10.0000143873
10.0000143248
10.0000142429
10.0000141441
10.0000140275
10.0000138953
10.000013746
10.0000135826
10.0000134074
10.0000132245
10.0000130365
10.000012858
10
10.0000000856
10.0000001623
10.0000002425
10.0000003324
10.0000004317
10.0000005406
10.0000006587
10.0000007857
10.0000009201
10.0000010605
10.0000012046
10.0000013503
10.0000014947
10.0000016357
10.0000017705
10.0000018973
10.0000020136
10.0000021181
10.0000022089
10.0000022854
10.0000023462
10.0000023917
10.0000024209
10.0000024348
10.000002433
10.0000024172
10.0000023874
10.0000023457
10.0000022924
10.0000022299
10.0000021585
10.0000020807
10.0000019967
10.000001909
10.0000018172
10.0000017236
10.0000016274
10.0000015304
10.0000014315
10.0000013319
10.0000012301
10.0000011272
10.0000010213
10.0000009136
10.000000802
10.0000006878
10.0000005691
10.0000004474
10.0000003208
10.000000191
10.0000000564
9.99999991895
9.99999977729
9.99999963414
9.99999948895
9.99999934573
9.9999992055
9.99999907409
9.99999895445
9.99999885408
9.99999877709
9.99999873116
9.99999871941
9.99999874725
9.99999881458
9.99999892302
9.99999906902
9.99999925155
9.99999946557
9.99999970953
9.99999997849
10.0000002712
10.0000005829
10.0000009124
10.0000012551
10.0000016098
10.0000019721
10.0000023411
10.0000027132
10.000003088
10.0000034627
10.0000038377
10.0000042111
10.0000045838
10.0000049548
10.0000053255
10.000005695
10.0000060648
10.0000064342
10.0000068043
10.0000071741
10.0000075441
10.0000079127
10.0000082798
10.0000086436
10.000009003
10.0000093559
10.0000097011
10.0000100363
10.00001036
10.00001067
10.000010965
10.0000112431
10.000011503
10.0000117434
10.0000119634
10.000012162
10.0000123385
10.0000124929
10.0000126245
10.0000127337
10.0000128204
10.0000128854
10.0000129288
10.0000129519
10.0000129551
10.0000129398
10.0000129067
10.0000128572
10.0000127917
10.0000127115
10.0000126161
10.0000125074
10.000012384
10.0000122513
10.000012103
10.0000119681
10.0000000057
10.0000001061
10.0000001983
10.0000002846
10.0000003746
10.0000004697
10.0000005708
10.0000006779
10.0000007915
10.0000009107
10.0000010352
10.0000011634
10.0000012942
10.0000014256
10.0000015562
10.0000016838
10.000001807
10.0000019238
10.0000020329
10.0000021326
10.0000022223
10.0000023004
10.0000023671
10.0000024213
10.0000024634
10.000002493
10.0000025112
10.0000025176
10.000002514
10.0000025002
10.0000024783
10.0000024483
10.0000024123
10.0000023704
10.0000023244
10.0000022745
10.0000022222
10.0000021672
10.0000021107
10.0000020521
10.0000019922
10.0000019299
10.000001866
10.0000017989
10.0000017293
10.0000016556
10.0000015786
10.0000014965
10.0000014104
10.0000013186
10.0000012223
10.00000112
10.0000010131
10.0000009004
10.0000007839
10.000000663
10.0000005409
10.0000004184
10.0000003
10.0000001885
10.0000000899
10.0000000078
9.99999994849
9.99999991472
9.99999991057
9.99999993573
9.99999999079
10.0000000724
10.000000179
10.0000003063
10.000000453
10.0000006158
10.000000794
10.0000009852
10.0000011892
10.0000014038
10.0000016292
10.0000018633
10.0000021063
10.0000023566
10.0000026144
10.0000028784
10.0000031489
10.0000034247
10.0000037062
10.0000039925
10.0000042839
10.0000045797
10.0000048802
10.0000051846
10.0000054929
10.0000058042
10.0000061182
10.0000064338
10.0000067501
10.0000070659
10.0000073798
10.0000076904
10.0000079962
10.0000082955
10.0000085868
10.0000088686
10.0000091393
10.0000093975
10.0000096419
10.0000098714
10.0000100849
10.0000102816
10.0000104606
10.0000106218
10.0000107644
10.0000108885
10.0000109938
10.0000110809
10.0000111495
10.0000112007
10.0000112346
10.0000112524
10.0000112544
10.0000112421
10.0000112157
10.0000111766
10.0000111239
10.0000110604
10.0000109818
10.0000108976
10.0000107827
10.0000107116
10.0000000054
10.0000001156
10.0000002134
10.0000003089
10.0000004065
10.0000005059
10.0000006076
10.0000007121
10.0000008201
10.0000009315
10.0000010463
10.0000011636
10.0000012829
10.0000014029
10.0000015227
10.0000016407
10.000001756
10.0000018671
10.000001973
10.0000020723
10.0000021644
10.0000022483
10.0000023235
10.0000023893
10.0000024459
10.0000024929
10.0000025307
10.0000025593
10.0000025795
10.0000025916
10.0000025966
10.000002595
10.0000025878
10.0000025757
10.0000025595
10.0000025397
10.0000025172
10.0000024921
10.0000024648
10.0000024353
10.0000024036
10.0000023693
10.0000023324
10.0000022919
10.000002248
10.0000021994
10.0000021463
10.0000020877
10.0000020239
10.0000019539
10.0000018782
10.0000017961
10.0000017082
10.0000016142
10.0000015152
10.0000014116
10.0000013052
10.000001198
10.0000010933
10.0000009945
10.0000009065
10.0000008337
10.0000007812
10.0000007523
10.0000007496
10.000000773
10.0000008213
10.0000008909
10.0000009785
10.0000010797
10.0000011919
10.0000013122
10.0000014394
10.0000015716
10.0000017086
10.0000018492
10.0000019938
10.0000021418
10.0000022941
10.0000024507
10.0000026125
10.0000027798
10.0000029537
10.0000031341
10.000003322
10.0000035173
10.0000037204
10.000003931
10.0000041493
10.0000043747
10.000004607
10.0000048452
10.0000050889
10.0000053368
10.0000055881
10.0000058412
10.0000060951
10.0000063483
10.0000065993
10.0000068468
10.0000070892
10.0000073253
10.0000075536
10.0000077729
10.000007982
10.00000818
10.0000083659
10.0000085388
10.0000086982
10.0000088435
10.0000089742
10.0000090903
10.0000091914
10.0000092777
10.0000093492
10.0000094064
10.0000094495
10.0000094793
10.0000094961
10.0000095012
10.0000094946
10.0000094781
10.0000094497
10.0000094143
10.0000093603
10.0000093128
10.0000092131
10.0000092051
10.0000000097
10.0000001279
10.0000002383
10.0000003403
10.0000004418
10.0000005434
10.0000006455
10.0000007485
10.0000008533
10.0000009599
10.0000010683
10.0000011782
10.0000012891
10.0000014002
10.000001511
10.0000016203
10.0000017274
10.0000018313
10.0000019311
10.0000020259
10.0000021152
10.0000021982
10.0000022743
10.0000023434
10.000002405
10.0000024592
10.0000025059
10.0000025455
10.000002578
10.0000026044
10.0000026244
10.0000026395
10.0000026492
10.0000026554
10.0000026573
10.0000026569
10.0000026527
10.0000026472
10.0000026383
10.000002628
10.0000026143
10.0000025985
10.0000025789
10.0000025559
10.0000025283
10.0000024961
10.0000024584
10.000002415
10.0000023655
10.0000023096
10.0000022472
10.0000021783
10.0000021029
10.0000020213
10.0000019341
10.000001842
10.0000017468
10.0000016504
10.000001556
10.0000014675
10.0000013893
10.0000013266
10.000001284
10.0000012654
10.000001273
10.0000013065
10.0000013638
10.000001441
10.0000015335
10.0000016367
10.000001747
10.0000018613
10.0000019775
10.0000020937
10.0000022089
10.0000023221
10.000002433
10.0000025415
10.0000026481
10.0000027536
10.000002859
10.0000029655
10.0000030744
10.0000031869
10.0000033041
10.000003427
10.0000035565
10.000003693
10.000003837
10.0000039885
10.0000041475
10.0000043134
10.0000044858
10.0000046639
10.0000048466
10.0000050328
10.0000052214
10.0000054111
10.0000056004
10.0000057882
10.0000059731
10.0000061538
10.0000063291
10.000006498
10.0000066594
10.0000068124
10.0000069562
10.0000070901
10.0000072135
10.000007326
10.0000074271
10.0000075168
10.0000075948
10.0000076611
10.0000077159
10.0000077593
10.0000077917
10.0000078136
10.0000078254
10.0000078282
10.0000078215
10.0000078085
10.0000077841
10.000007759
10.0000077098
10.000007684
10.0000075805
10.0000076191
10.0000000069
10.000000129
10.0000002405
10.0000003496
10.000000459
10.0000005671
10.0000006737
10.0000007794
10.0000008848
10.0000009903
10.0000010961
10.0000012022
10.0000013083
10.0000014139
10.0000015186
10.0000016216
10.0000017224
10.0000018203
10.0000019146
10.0000020047
10.0000020901
10.0000021703
10.0000022448
10.0000023134
10.0000023758
10.0000024322
10.0000024823
10.0000025268
10.0000025649
10.0000025986
10.000002626
10.0000026507
10.0000026691
10.0000026867
10.0000026978
10.0000027103
10.0000027157
10.0000027238
10.0000027246
10.0000027281
10.0000027244
10.0000027218
10.0000027126
10.0000027019
10.000002685
10.000002664
10.0000026369
10.000002604
10.0000025647
10.0000025187
10.0000024661
10.0000024064
10.0000023401
10.000002267
10.0000021877
10.0000021031
10.0000020145
10.0000019241
10.0000018351
10.0000017518
10.0000016789
10.0000016223
10.000001587
10.0000015777
10.0000015963
10.0000016427
10.0000017138
10.0000018049
10.0000019103
10.0000020249
10.0000021443
10.0000022653
10.0000023856
10.0000025032
10.0000026166
10.0000027246
10.0000028265
10.0000029218
10.000003011
10.0000030945
10.0000031735
10.000003249
10.0000033226
10.0000033955
10.0000034694
10.0000035452
10.0000036245
10.000003708
10.0000037966
10.0000038908
10.0000039909
10.0000040969
10.0000042087
10.0000043255
10.0000044469
10.000004572
10.0000046997
10.000004829
10.0000049588
10.0000050878
10.0000052151
10.0000053394
10.0000054598
10.0000055753
10.0000056851
10.0000057882
10.0000058842
10.0000059724
10.0000060523
10.0000061236
10.0000061861
10.0000062394
10.0000062836
10.0000063188
10.0000063449
10.0000063623
10.0000063711
10.0000063723
10.0000063653
10.0000063525
10.0000063315
10.0000063083
10.000006273
10.0000062448
10.0000061848
10.0000061669
10.0000060472
10.0000061113
10.0000000108
10.0000001391
10.0000002607
10.0000003737
10.0000004854
10.0000005954
10.0000007036
10.0000008102
10.0000009158
10.0000010207
10.000001125
10.0000012289
10.000001332
10.0000014341
10.0000015348
10.0000016336
10.0000017301
10.0000018238
10.0000019141
10.0000020006
10.0000020827
10.0000021604
10.0000022329
10.0000023007
10.0000023625
10.00000242
10.0000024709
10.0000025186
10.0000025587
10.000002598
10.000002628
10.0000026609
10.0000026817
10.0000027106
10.0000027233
10.0000027499
10.0000027558
10.0000027806
10.0000027812
10.0000028028
10.0000027995
10.0000028146
10.000002808
10.000002813
10.000002802
10.0000027943
10.0000027759
10.0000027546
10.0000027255
10.0000026906
10.0000026484
10.0000025994
10.0000025431
10.0000024797
10.0000024091
10.0000023323
10.00000225
10.0000021647
10.0000020793
10.0000019985
10.0000019274
10.0000018727
10.0000018399
10.0000018343
10.0000018582
10.0000019113
10.0000019899
10.0000020887
10.0000022014
10.0000023224
10.0000024471
10.0000025725
10.000002696
10.0000028158
10.0000029303
10.0000030381
10.0000031383
10.0000032305
10.0000033144
10.0000033906
10.0000034597
10.0000035227
10.0000035807
10.0000036349
10.0000036866
10.000003737
10.0000037874
10.0000038389
10.0000038924
10.0000039487
10.0000040083
10.0000040715
10.0000041383
10.0000042087
10.0000042821
10.0000043581
10.0000044358
10.0000045146
10.0000045934
10.0000046714
10.0000047476
10.0000048213
10.0000048915
10.0000049574
10.0000050184
10.0000050739
10.0000051234
10.0000051663
10.0000052024
10.0000052315
10.0000052533
10.0000052678
10.0000052751
10.0000052751
10.0000052681
10.0000052545
10.0000052342
10.0000052085
10.0000051763
10.000005141
10.0000050983
10.0000050575
10.0000050031
10.0000049637
10.0000048853
10.0000048654
10.0000047257
10.0000047963
10.0000000073
10.0000001389
10.0000002606
10.0000003797
10.0000004984
10.0000006146
10.0000007277
10.000000838
10.0000009461
10.0000010525
10.0000011575
10.0000012611
10.0000013634
10.0000014641
10.000001563
10.0000016598
10.000001754
10.0000018455
10.0000019335
10.0000020182
10.0000020985
10.0000021751
10.0000022465
10.0000023144
10.0000023758
10.0000024352
10.0000024859
10.000002538
10.0000025776
10.0000026246
10.0000026524
10.0000026978
10.0000027129
10.0000027608
10.0000027622
10.0000028164
10.0000028038
10.0000028654
10.0000028408
10.000002906
10.0000028748
10.0000029349
10.0000029045
10.0000029485
10.0000029243
10.0000029447
10.0000029255
10.0000029224
10.0000029012
10.0000028791
10.0000028478
10.0000028098
10.0000027639
10.0000027098
10.0000026472
10.0000025764
10.0000024981
10.0000024146
10.000002329
10.0000022466
10.0000021733
10.0000021171
10.0000020845
10.000002082
10.0000021118
10.0000021738
10.0000022625
10.0000023716
10.000002493
10.0000026206
10.0000027495
10.0000028769
10.0000030003
10.0000031183
10.0000032295
10.0000033329
10.0000034276
10.0000035132
10.0000035899
10.0000036581
10.0000037184
10.0000037717
10.000003819
10.0000038611
10.0000038991
10.000003934
10.0000039668
10.0000039985
10.0000040299
10.0000040618
10.0000040947
10.000004129
10.000004165
10.0000042024
10.0000042411
10.0000042807
10.0000043208
10.0000043606
10.0000043996
10.0000044369
10.0000044719
10.000004504
10.0000045324
10.0000045566
10.0000045762
10.0000045905
10.0000045994
10.0000046025
10.0000045996
10.0000045906
10.0000045756
10.0000045545
10.0000045274
10.0000044945
10.000004456
10.0000044126
10.0000043639
10.0000043116
10.0000042541
10.0000041959
10.0000041306
10.0000040711
10.0000039962
10.0000039432
10.0000038455
10.0000038181
10.000003661
10.0000037258
10.0000000115
10.00000015
10.0000002821
10.0000004047
10.0000005253
10.0000006432
10.0000007581
10.0000008701
10.0000009796
10.0000010871
10.0000011927
10.0000012966
10.0000013987
10.000001499
10.0000015972
10.0000016933
10.0000017866
10.0000018772
10.0000019643
10.0000020486
10.0000021282
10.0000022053
10.0000022761
10.0000023459
10.0000024066
10.0000024703
10.0000025193
10.0000025794
10.0000026143
10.0000026758
10.0000026926
10.0000027632
10.0000027556
10.0000028458
10.0000028056
10.0000029269
10.0000028463
10.0000030059
10.0000028835
10.0000030774
10.0000029247
10.0000031313
10.0000029755
10.0000031584
10.0000030329
10.0000031583
10.0000030821
10.0000031397
10.0000031035
10.00000311
10.0000030864
10.0000030642
10.0000030308
10.0000029886
10.0000029361
10.0000028731
10.0000027998
10.0000027183
10.0000026319
10.0000025463
10.0000024688
10.0000024083
10.000002373
10.0000023702
10.0000024028
10.0000024695
10.0000025643
10.000002679
10.000002805
10.0000029351
10.0000030645
10.0000031899
10.0000033094
10.0000034217
10.0000035257
10.0000036205
10.0000037058
10.0000037813
10.0000038476
10.0000039054
10.0000039552
10.0000039982
10.0000040348
10.0000040662
10.000004093
10.0000041162
10.0000041363
10.0000041542
10.0000041704
10.0000041858
10.0000042005
10.0000042151
10.0000042295
10.000004244
10.0000042581
10.0000042717
10.0000042843
10.0000042955
10.0000043046
10.0000043112
10.0000043147
10.0000043146
10.0000043104
10.0000043017
10.0000042881
10.0000042695
10.0000042455
10.000004216
10.0000041811
10.0000041408
10.000004095
10.0000040441
10.0000039881
10.0000039275
10.0000038623
10.0000037935
10.0000037205
10.0000036455
10.0000035661
10.0000034882
10.0000034032
10.0000033273
10.0000032347
10.0000031692
10.0000030559
10.0000030197
10.0000028515
10.0000029041
10.000000008
10.0000001503
10.0000002829
10.0000004121
10.0000005401
10.0000006646
10.000000785
10.0000009016
10.0000010148
10.0000011251
10.000001233
10.0000013386
10.0000014421
10.0000015434
10.0000016423
10.0000017389
10.0000018326
10.000001924
10.0000020114
10.0000020967
10.0000021766
10.0000022558
10.0000023266
10.0000024005
10.0000024599
10.0000025311
10.0000025756
10.0000026499
10.0000026729
10.0000027608
10.0000027508
10.0000028704
10.0000028077
10.0000029862
10.0000028424
10.000003115
10.0000028562
10.0000032575
10.0000028573
10.0000034016
10.0000028658
10.0000035193
10.0000029102
10.0000035765
10.0000030108
10.0000035573
10.0000031536
10.0000034871
10.0000032847
10.0000034163
10.0000033499
10.0000033663
10.0000033379
10.0000033085
10.0000032643
10.0000032062
10.0000031339
10.0000030491
10.0000029556
10.0000028604
10.0000027725
10.0000027037
10.000002664
10.0000026629
10.0000027032
10.000002783
10.000002893
10.0000030228
10.000003161
10.0000032999
10.000003434
10.0000035602
10.0000036769
10.0000037828
10.000003877
10.0000039592
10.0000040295
10.0000040884
10.0000041372
10.0000041771
10.0000042094
10.0000042352
10.0000042554
10.0000042708
10.0000042822
10.0000042902
10.0000042955
10.0000042989
10.0000043007
10.0000043011
10.0000043003
10.0000042987
10.0000042962
10.0000042927
10.0000042881
10.0000042819
10.0000042738
10.0000042633
10.00000425
10.0000042333
10.0000042129
10.0000041883
10.0000041592
10.0000041252
10.0000040863
10.0000040422
10.0000039929
10.0000039383
10.0000038786
10.000003814
10.0000037445
10.0000036706
10.0000035923
10.0000035104
10.0000034247
10.0000033366
10.000003245
10.000003153
10.0000030572
10.0000029646
10.0000028653
10.0000027774
10.0000026724
10.0000025977
10.0000024749
10.0000024309
10.0000022591
10.0000022982
10.0000000125
10.0000001624
10.0000003059
10.0000004389
10.0000005691
10.0000006958
10.0000008187
10.0000009378
10.0000010536
10.0000011664
10.0000012764
10.000001384
10.0000014891
10.000001592
10.0000016922
10.0000017903
10.000001885
10.000001978
10.0000020663
10.000002154
10.0000022344
10.0000023173
10.0000023877
10.000002468
10.0000025246
10.0000026074
10.0000026433
10.0000027393
10.0000027408
10.0000028709
10.0000028122
10.0000030139
10.0000028494
10.0000031848
10.0000028407
10.0000034023
10.0000027752
10.000003679
10.0000026536
10.0000040037
10.0000025074
10.0000043207
10.0000024142
10.0000045263
10.0000024799
10.0000045164
10.0000027622
10.0000042854
10.0000031774
10.0000039781
10.000003524
10.0000037715
10.0000036666
10.0000036809
10.000003641
10.0000035895
10.000003519
10.0000034303
10.0000033273
10.0000032188
10.0000031173
10.0000030357
10.0000029876
10.0000029845
10.0000030304
10.0000031203
10.0000032427
10.0000033841
10.0000035328
10.0000036798
10.0000038193
10.0000039476
10.0000040627
10.000004163
10.0000042479
10.0000043173
10.000004372
10.0000044134
10.0000044434
10.000004464
10.0000044771
10.000004484
10.0000044857
10.0000044833
10.0000044771
10.0000044682
10.0000044568
10.0000044439
10.0000044295
10.0000044147
10.0000043988
10.0000043819
10.0000043638
10.0000043445
10.0000043236
10.0000043007
10.0000042755
10.0000042474
10.000004216
10.0000041808
10.0000041415
10.0000040977
10.0000040492
10.0000039957
10.0000039371
10.0000038734
10.0000038046
10.0000037309
10.0000036524
10.0000035694
10.0000034821
10.000003391
10.0000032962
10.0000031986
10.0000030981
10.000002996
10.0000028914
10.0000027875
10.0000026805
10.0000025781
10.0000024697
10.000002374
10.0000022622
10.0000021815
10.0000020552
10.0000020056
10.0000018369
10.0000018635
10.0000000091
10.0000001632
10.0000003077
10.0000004475
10.0000005854
10.0000007191
10.0000008482
10.0000009728
10.0000010933
10.0000012103
10.000001324
10.0000014349
10.0000015429
10.0000016485
10.0000017511
10.0000018517
10.0000019485
10.0000020442
10.0000021343
10.0000022254
10.000002307
10.000002395
10.0000024653
10.0000025536
10.0000026069
10.0000027039
10.0000027288
10.0000028518
10.0000028252
10.0000030089
10.0000028854
10.0000031955
10.0000028895
10.0000034443
10.0000028049
10.0000038015
10.0000025872
10.0000043193
10.0000021956
10.0000050263
10.0000016347
10.0000058684
10.0000010244
10.0000066394
10.0000006473
10.0000069867
10.0000008578
10.0000066141
10.0000017735
10.0000056395
10.0000029836
10.0000046633
10.0000038097
10.0000041701
10.000004028
10.0000040008
10.0000039243
10.0000038193
10.0000036929
10.000003562
10.000003436
10.0000033282
10.0000032654
10.0000032685
10.0000033337
10.0000034449
10.0000035841
10.0000037405
10.0000039056
10.000004072
10.0000042312
10.0000043762
10.0000045016
10.0000046045
10.0000046843
10.0000047416
10.0000047785
10.000004798
10.0000048037
10.0000047988
10.0000047862
10.000004768
10.0000047456
10.0000047198
10.0000046913
10.0000046609
10.0000046289
10.000004596
10.0000045626
10.000004529
10.0000044956
10.0000044623
10.0000044281
10.0000043928
10.0000043561
10.0000043175
10.0000042764
10.0000042324
10.0000041851
10.0000041339
10.0000040785
10.0000040186
10.000003954
10.0000038845
10.0000038102
10.0000037309
10.0000036469
10.0000035584
10.0000034655
10.0000033686
10.0000032682
10.0000031645
10.0000030581
10.0000029494
10.0000028389
10.0000027274
10.0000026147
10.0000025031
10.00000239
10.0000022816
10.0000021692
10.0000020691
10.0000019556
10.0000018715
10.000001747
10.0000016931
10.0000015327
10.0000015475
10.0000000137
10.0000001758
10.0000003311
10.0000004748
10.0000006148
10.0000007511
10.0000008831
10.0000010111
10.0000011351
10.0000012556
10.0000013727
10.000001487
10.000001598
10.0000017068
10.0000018121
10.0000019158
10.0000020151
10.0000021141
10.0000022064
10.0000023015
10.000002385
10.0000024782
10.0000025492
10.0000026455
10.0000026968
10.000002807
10.0000028235
10.0000029707
10.0000029211
10.0000031524
10.0000029723
10.000003382
10.0000029434
10.0000037135
10.0000027719
10.0000042362
10.0000023545
10.000005082
10.0000015485
10.0000064043
10.0000002198
10.0000082871
9.99999838487
10.0000105467
9.99999645008
10.0000124946
9.99999536627
10.0000129878
9.9999962425
10.0000112323
9.99999918077
10.0000080149
10.0000024751
10.0000054627
10.0000041639
10.0000045324
10.0000043659
10.0000042324
10.0000040933
10.0000039498
10.0000037609
10.0000035876
10.000003546
10.0000036076
10.0000036513
10.0000036178
10.0000035591
10.0000035698
10.0000037048
10.0000039492
10.0000042463
10.0000045354
10.0000047778
10.0000049591
10.0000050818
10.000005155
10.0000051897
10.0000051957
10.0000051814
10.0000051533
10.0000051165
10.0000050742
10.0000050282
10.0000049798
10.0000049294
10.0000048777
10.0000048249
10.0000047715
10.0000047178
10.0000046643
10.0000046113
10.0000045589
10.0000045071
10.0000044546
10.000004401
10.0000043459
10.0000042886
10.0000042287
10.0000041658
10.0000040993
10.0000040289
10.0000039542
10.0000038752
10.0000037917
10.0000037037
10.0000036111
10.0000035145
10.0000034136
10.0000033092
10.0000032012
10.0000030906
10.0000029771
10.0000028622
10.0000027451
10.0000026279
10.0000025094
10.0000023922
10.0000022747
10.0000021595
10.0000020461
10.0000019339
10.0000018289
10.0000017185
10.0000016284
10.0000015108
10.0000014471
10.0000012993
10.0000012935
10.0000000105
10.0000001769
10.0000003334
10.0000004837
10.0000006313
10.0000007745
10.0000009129
10.0000010468
10.0000011762
10.0000013018
10.0000014236
10.0000015422
10.0000016574
10.0000017702
10.0000018792
10.0000019868
10.0000020895
10.0000021925
10.0000022881
10.0000023875
10.0000024742
10.0000025723
10.0000026465
10.0000027486
10.0000028026
10.0000029203
10.0000029384
10.000003096
10.0000030446
10.0000032935
10.0000031011
10.0000035484
10.0000030652
10.0000039301
10.0000028493
10.0000045695
10.0000022856
10.0000056985
10.0000010842
10.0000076832
9.99999882069
10.0000109846
9.99999506112
10.0000159003
9.99998980134
10.0000219184
9.99998428141
10.0000268856
9.99998152953
10.0000272137
9.99998488557
10.0000209012
9.99999374718
10.0000116477
10.0000017858
10.0000061027
10.0000045156
10.0000046441
10.0000045825
10.000004278
10.000003755
10.0000037343
10.0000042658
10.0000041399
10.0000024273
9.99999950859
9.99999669054
9.99999517258
9.99999537333
9.99999692747
9.9999991061
10.0000012461
10.0000029657
10.0000041624
10.0000049043
10.0000053169
10.0000055174
10.0000055906
10.000005591
10.0000055502
10.0000054865
10.0000054104
10.0000053283
10.000005244
10.0000051601
10.0000050778
10.0000049981
10.0000049209
10.0000048463
10.0000047739
10.0000047035
10.0000046347
10.0000045675
10.000004501
10.0000044337
10.000004365
10.0000042943
10.0000042211
10.0000041449
10.0000040653
10.0000039819
10.0000038944
10.0000038029
10.000003707
10.0000036071
10.0000035029
10.0000033954
10.0000032836
10.0000031697
10.0000030518
10.0000029335
10.000002811
10.0000026905
10.0000025652
10.0000024449
10.0000023184
10.000002201
10.0000020746
10.0000019624
10.0000018374
10.0000017317
10.0000016095
10.0000015091
10.0000013917
10.0000012877
10.0000011801
10.0000010499
10.0000009721
10.0000000151
10.0000001894
10.0000003563
10.0000005102
10.0000006597
10.0000008054
10.0000009468
10.0000010843
10.0000012177
10.0000013474
10.0000014734
10.0000015963
10.0000017155
10.0000018324
10.0000019454
10.0000020569
10.0000021636
10.0000022705
10.0000023702
10.0000024734
10.0000025648
10.0000026664
10.0000027465
10.0000028509
10.0000029136
10.0000030304
10.0000030631
10.0000032123
10.0000031876
10.0000034122
10.0000032702
10.0000036626
10.0000032716
10.0000040309
10.0000031033
10.000004658
10.0000025725
10.0000058311
10.0000012843
10.0000081056
9.9999984978
10.000012449
9.99999301943
10.0000202312
9.9999834511
10.0000325674
9.99996945255
10.0000483018
9.99995446825
10.0000610245
9.99994785226
10.0000595937
9.99995955378
10.0000393816
9.99998454194
10.0000158736
10.0000011831
10.0000064047
10.0000052304
10.000003375
10.0000032789
10.0000072086