/*--------------------------------*- C++ -*----------------------------------*\
  =========                 |
  \\      /  F ield         | OpenFOAM: The Open Source CFD Toolbox
   \\    /   O peration     | Website:  https://openfoam.org
    \\  /    A nd           | Version:  7
     \\/     M anipulation  |
\*---------------------------------------------------------------------------*/
FoamFile
{
    version     2.0;
    format      ascii;
    class       surfaceScalarField;
    location    "3000";
    object      phi;
}
// * * * * * * * * * * * * * * * * * * * * * * * * * * * * * * * * * * * * * //

dimensions      [0 3 -1 0 0 0 0];

internalField   nonuniform List<scalar> 
16192
(
6.92943701255e-10
2.44556298745e-10
4.93605444124e-10
1.99338254494e-10
3.64870844993e-10
1.2873459628e-10
2.82266981085e-10
8.26038608146e-11
2.27599368138e-10
5.46676095277e-11
1.89927684655e-10
3.76716799555e-11
1.62912372959e-10
2.70153081916e-11
1.42843196489e-10
2.00691730643e-11
1.27487628391e-10
1.53555648175e-11
1.15454419989e-10
1.20332052829e-11
1.05843878306e-10
9.61053873613e-12
9.80528610873e-11
7.79101447823e-12
9.16633472892e-11
6.3895112675e-12
8.63768708903e-11
5.2864741143e-12
8.19747180818e-11
4.40215076602e-12
7.82929977999e-11
3.68171851904e-12
7.5206550634e-11
3.08644567216e-12
7.26182654164e-11
2.58828403082e-12
7.04517988874e-11
2.16646563128e-12
6.86464957084e-11
1.80530260825e-12
6.71537668139e-11
1.49272862434e-12
6.59344577165e-11
1.21930916542e-12
6.49569028005e-11
9.7755528685e-13
6.41954652421e-11
7.6143826935e-13
6.36294263321e-11
5.66039916172e-13
6.32421313236e-11
3.87296347356e-13
6.3020325682e-11
2.21807258971e-13
6.29536356138e-11
6.66920019447e-14
6.30341582354e-11
-8.05204337855e-14
6.32561365149e-11
-2.21975798039e-13
6.36156989972e-11
-3.59559776462e-13
6.41106511612e-11
-4.94949190249e-13
6.47403055862e-11
-6.29651257061e-13
6.55053414838e-11
-7.6503248549e-13
6.64076837102e-11
-9.02338644978e-13
6.74503936523e-11
-1.04270613231e-12
6.86375624163e-11
-1.18716479907e-12
6.99741980052e-11
-1.33663139803e-12
7.14660950643e-11
-1.49189271162e-12
7.31196762484e-11
-1.65357659687e-12
7.49417902742e-11
-1.82210926418e-12
7.69394518268e-11
-1.99765652213e-12
7.91195043727e-11
-2.18004731081e-12
8.14881879474e-11
-2.36867803381e-12
8.40505917692e-11
-2.5623980431e-12
8.68099764342e-11
-2.75937854713e-12
8.97669541831e-11
-2.95697137e-12
9.2918529482e-11
-3.15156856402e-12
9.62570171958e-11
-3.33848071656e-12
9.9768882738e-11
-3.51185819872e-12
1.03433576679e-10
-3.66468636411e-12
1.07222473232e-10
-3.78888867236e-12
1.11098051902e-10
-3.87557062244e-12
1.15013487896e-10
-3.91542772962e-12
1.18912819825e-10
-3.89932361864e-12
1.22731846054e-10
-3.8190178609e-12
1.26399846596e-10
-3.66799234256e-12
1.29842145886e-10
-3.44229131128e-12
1.32983414886e-10
-3.14126154759e-12
1.35751481787e-10
-2.768060103e-12
1.38081288648e-10
-2.32980110294e-12
1.39918543661e-10
-1.83725046646e-12
1.41222604389e-10
-1.30405778423e-12
1.41968229055e-10
-7.45623442507e-13
1.4214603063e-10
-1.77802346687e-13
1.41761720078e-10
3.84307840819e-13
1.4083443977e-10
9.27275583039e-13
1.39394600112e-10
1.43983317341e-12
1.37481595648e-10
1.91299631664e-12
1.35141675576e-10
2.3399106254e-12
1.32426093727e-10
2.71557126313e-12
1.29389533988e-10
3.03654838745e-12
1.26088722638e-10
3.30079937443e-12
1.2258112131e-10
3.50758905476e-12
1.1892362049e-10
3.65748834425e-12
1.15171214112e-10
3.75239396166e-12
1.11375694333e-10
3.79550746196e-12
1.07584453199e-10
3.79122910814e-12
1.03839491323e-10
3.74495012481e-12
1.001767222e-10
3.66275777552e-12
9.66256212819e-11
3.55108990801e-12
9.32092247323e-11
3.41638595296e-12
8.9944437162e-11
3.26477729048e-12
8.684257985e-11
3.10184739086e-12
8.39100952298e-11
2.93247494825e-12
8.11493273661e-11
2.76075846644e-12
7.8559308473e-11
2.59000966396e-12
7.61365012145e-11
2.42279821988e-12
7.3875463023e-11
2.26102925069e-12
7.17694166498e-11
2.10603755772e-12
6.98107218866e-11
1.95868599991e-12
6.79912535925e-11
1.81945961913e-12
6.63026946862e-11
1.68855026783e-12
6.47367566485e-11
1.56592947984e-12
6.32853392342e-11
1.45140890491e-12
6.19406417503e-11
1.34468907234e-12
6.06952357857e-11
1.24539763477e-12
5.95421088493e-11
1.15311873835e-12
5.8474685798e-11
1.06741498098e-12
5.7486834402e-11
9.87843500102e-13
5.65728592971e-11
9.13967387528e-13
5.5727488217e-11
8.45363580927e-13
5.49458528792e-11
7.81628065832e-13
5.4223466705e-11
7.22379159659e-13
5.35562005377e-11
6.67259422398e-13
5.29402573908e-11
6.15936690852e-13
5.23721466334e-11
5.68104604007e-13
5.18486578364e-11
5.23482954406e-13
5.13668341553e-11
4.81818163955e-13
5.09239447965e-11
4.42884164561e-13
5.05174559186e-11
4.06484021711e-13
5.01449987377e-11
3.72452650031e-13
4.98043334021e-11
3.40661145705e-13
4.94933061796e-11
3.11023351436e-13
4.92097969976e-11
2.83505645961e-13
4.89516524947e-11
2.58141270988e-13
4.87165982438e-11
2.35051339949e-13
4.85021199319e-11
2.14475684024e-13
4.83052988095e-11
1.96818796098e-13
4.81225774257e-11
1.82719318092e-13
4.79494181407e-11
1.73157504871e-13
4.77797918789e-11
1.69624731697e-13
4.7605396246e-11
1.74394393812e-13
4.74144468447e-11
1.90948431393e-13
4.71898569137e-11
2.24589279631e-13
4.69069208051e-11
2.82935727179e-13
4.65325947821e-11
3.74325818258e-13
4.80234383834e-13
9.534302304e-10
2.28626066266e-10
8.59668684222e-10
2.93099794818e-10
7.45081221684e-10
2.43322052502e-10
6.41807798753e-10
1.85877276884e-10
5.56478461844e-10
1.39996939229e-10
4.87896599943e-10
1.06253534621e-10
4.33046240719e-10
8.18656603208e-11
3.88979963957e-10
6.41354429648e-11
3.53288401679e-10
5.10471205198e-11
3.2411797864e-10
4.12036220839e-11
3.00071144044e-10
3.36573674661e-11
2.80096742168e-10
2.7765410909e-11
2.63399449953e-10
2.30867984842e-11
2.49371603296e-10
1.93143162618e-11
2.37543688455e-10
1.62300616076e-11
2.27548811476e-10
1.36765920465e-11
2.19097198046e-10
1.15380562096e-11
2.11957777316e-10
9.72770246199e-12
2.05944754213e-10
8.17948702896e-12
2.00907709814e-10
6.84234592388e-12
1.96724216696e-10
5.67622126898e-12
1.93294266017e-10
4.64926000296e-12
1.90536014013e-10
3.73580805828e-12
1.8838250134e-10
2.91495233225e-12
1.86779097567e-10
2.16944566778e-12
1.85681493051e-10
1.48490343725e-12
1.85054107717e-10
8.49195715256e-13
1.84868821123e-10
2.5198227036e-13
1.85103951133e-10
-3.1564627187e-13
1.85743426041e-10
-8.61446037784e-13
1.86776106665e-10
-1.39223529514e-12
1.8819522572e-10
-1.9140627007e-12
1.89997914995e-10
-2.43233460966e-12
1.92184796004e-10
-2.95190718238e-12
1.94759610775e-10
-3.47714677053e-12
1.97728871753e-10
-4.01196010821e-12
2.01101507998e-10
-4.55979372877e-12
2.04888485043e-10
-5.12360077561e-12
2.09102372061e-10
-5.70577174075e-12
2.13756828756e-10
-6.30802492173e-12
2.1886597966e-10
-6.93125143744e-12
2.24443642334e-10
-7.57531003158e-12
2.30502372328e-10
-8.23876771733e-12
2.37052289835e-10
-8.91858545216e-12
2.44099655161e-10
-9.60975279415e-12
2.51645171715e-10
-1.03048839642e-11
2.59682011107e-10
-1.0993799092e-11
2.68193585007e-10
-1.16631301965e-11
2.7715112653e-10
-1.22960094241e-11
2.86511198237e-10
-1.28719165004e-11
2.96213303529e-10
-1.33667777407e-11
3.06177845266e-10
-1.37534159761e-11
3.16304730465e-10
-1.40024409965e-11
3.26472956987e-10
-1.40836390896e-11
3.36541512137e-10
-1.39678634815e-11
3.46351858577e-10
-1.36293490534e-11
3.55732162262e-10
-1.30482811687e-11
3.64503239475e-10
-1.22133543744e-11
3.72485967492e-10
-1.11239766366e-11
3.79509650219e-10
-9.79173158938e-12
3.85420590202e-10
-8.24073214711e-12
3.90089964286e-10
-6.50661839352e-12
3.93420093993e-10
-4.63418464043e-12
3.95348401486e-10
-2.67393165994e-12
3.95848721066e-10
-6.78126435286e-13
3.94930104722e-10
1.30291600632e-12
3.92633664799e-10
3.22370383852e-12
3.89028214516e-10
5.04526874397e-12
3.84205434437e-10
6.73575906305e-12
3.78275118066e-10
8.27020761842e-12
3.71360790655e-10
9.62987770814e-12
3.63595758575e-10
1.08015584509e-11
3.5511948869e-10
1.17770465638e-11
3.46074168927e-10
1.25528858748e-11
3.36601338659e-10
1.31302956806e-11
3.26838573496e-10
1.35151365102e-11
3.16916310883e-10
1.37177479174e-11
3.06954982282e-10
1.37525361908e-11
2.97062642913e-10
1.36372686418e-11
2.87333265079e-10
1.33921155022e-11
2.77845790039e-10
1.3038545524e-11
2.68663947063e-10
1.25982101924e-11
2.59836762849e-10
1.20919433468e-11
2.51399625499e-10
1.1538967126e-11
2.43375735013e-10
1.09563482383e-11
2.35777772468e-10
1.03587041916e-11
2.28609638364e-10
9.75812721115e-12
2.21868144143e-10
9.16427611502e-12
2.15544574821e-10
8.58458239284e-12
2.09626074948e-10
8.02452138802e-12
2.04096835758e-10
7.48790922969e-12
1.9893908256e-10
6.97719695795e-12
1.9413387349e-10
6.4937435562e-12
1.89661729579e-10
6.03805772794e-12
1.85503118493e-10
5.61000444841e-12
1.81638815893e-10
5.20897630688e-12
1.78050166146e-10
4.83403221287e-12
1.74719262731e-10
4.48400724262e-12
1.7162906516e-10
4.15759792913e-12
1.68763467181e-10
3.85342720599e-12
1.66107327756e-10
3.57009292158e-12
1.6364647453e-10
3.30620335233e-12
1.61367686952e-10
3.06040265595e-12
1.59258664902e-10
2.83138872997e-12
1.57307986874e-10
2.61792550678e-12
1.55505060797e-10
2.41885138951e-12
1.53840069386e-10
2.23308522158e-12
1.52303911118e-10
2.0596310293e-12
1.50888137108e-10
1.89758259543e-12
1.49584883372e-10
1.7461289402e-12
1.48386797317e-10
1.60456174029e-12
1.47286956326e-10
1.47228592041e-12
1.4627877559e-10
1.34883477923e-12
1.45355900977e-10
1.23389145901e-12
1.44512081746e-10
1.12731896651e-12
1.43741015892e-10
1.02920177987e-12
1.43036159519e-10
9.39902928677e-13
1.42390489106e-10
8.60141838706e-13
1.41796204529e-10
7.91099638902e-13
1.41244360415e-10
7.34560191941e-13
1.40724420311e-10
6.93094871758e-13
1.40223749786e-10
6.70293001644e-13
1.39727129552e-10
6.71012868691e-13
1.39216540358e-10
7.01536319298e-13
1.38671924515e-10
7.69204222372e-13
1.38074739528e-10
8.80120147263e-13
1.37419692833e-10
1.02937231262e-12
1.16557637186e-12
9.76225847953e-10
1.89900215464e-10
9.62933935806e-10
3.06391699523e-10
9.05908661976e-10
3.00347318671e-10
8.33306932945e-10
2.58478998174e-10
7.60126631916e-10
2.13177232342e-10
6.92786758756e-10
1.73593399889e-10
6.33367032454e-10
1.41285378868e-10
5.81980359305e-10
1.1552210858e-10
5.37950759019e-10
9.50767135235e-11
5.00362188717e-10
7.87921854157e-11
4.68297018817e-10
6.57225307258e-11
4.40927854817e-10
5.51345686557e-11
4.17543073967e-10
4.64715734784e-11
3.97544379407e-10
3.93130054184e-11
3.80434077485e-10
3.33403585808e-11
3.65799918834e-10
2.83107462606e-11
3.53300717737e-10
2.40372533689e-11
3.42653858117e-10
2.03745587008e-11
3.33624878478e-10
1.72084638194e-11
3.26018966885e-10
1.4448255252e-11
3.1967408249e-10
1.20211039487e-11
3.14455413226e-10
9.867928148e-12
3.10250910161e-10
7.94031055273e-12
3.06967682734e-10
6.19817978e-12
3.04529079136e-10
4.60804981451e-12
3.02872312879e-10
3.14167081131e-12
3.01946524237e-10
1.77498596878e-12
3.01711189507e-10
4.87319142235e-13
3.0213480733e-10
-7.39261508106e-13
3.03193805085e-10
-1.92044072122e-12
3.04871618968e-10
-3.07004571954e-12
3.07157910242e-10
-4.20035008094e-12
3.10047881881e-10
-5.32230201957e-12
3.13541665485e-10
-6.44568616593e-12
3.1764374812e-10
-7.57922449074e-12
3.2236241107e-10
-8.73061777575e-12
3.27709149529e-10
-9.90652662756e-12
3.33698042538e-10
-1.11124878555e-11
3.40345037583e-10
-1.23527605656e-11
3.47667113427e-10
-1.36300941428e-11
3.55681279314e-10
-1.49454103661e-11
3.64403368707e-10
-1.62973920032e-11
3.73846582713e-10
-1.76819739038e-11
3.84019743552e-10
-1.90917379357e-11
3.94925223744e-10
-2.05152241639e-11
4.06556534802e-10
-2.19361855984e-11
4.18895582202e-10
-2.33328365515e-11
4.31909634561e-10
-2.46771719742e-11
4.45548104905e-10
-2.59344686538e-11
4.59739311538e-10
-2.70631113832e-11
4.74387460198e-10
-2.8014914152e-11
4.89370171142e-10
-2.87361140981e-11
5.04536939064e-10
-2.91691957094e-11
5.19708953907e-10
-2.92556403164e-11
5.3468069446e-10
-2.89395902801e-11
5.49223629161e-10
-2.8172269937e-11
5.63092197731e-10
-2.69168362617e-11
5.76032018057e-10
-2.51531617847e-11
5.87789967308e-10
-2.28819140953e-11
5.98125468777e-10
-2.01272227492e-11
6.06822014053e-10
-1.69372692579e-11
6.13697753928e-10
-1.33823526255e-11
6.18613978325e-10
-9.55040649517e-12
6.21480556452e-10
-5.54051052225e-12
6.22257894236e-10
-1.45546850534e-12
6.20955573174e-10
2.60522941807e-12
6.17628357959e-10
6.5509081405e-12
6.12370540477e-10
1.03030725554e-11
6.05309552517e-10
1.37967309264e-11
5.96599557135e-10
1.69801850941e-11
5.86415405913e-10
1.98140095732e-11
5.74947058048e-10
2.22698860776e-11
5.62394363669e-10
2.43297201064e-11
5.48962055493e-10
2.59851730781e-11
5.34854838413e-10
2.72374918358e-11
5.20272583145e-10
2.80973712434e-11
5.05405752456e-10
2.85845585382e-11
4.90431282716e-10
2.87269865508e-11
4.75509169985e-10
2.85593626553e-11
4.60779973995e-10
2.81212935542e-11
4.46363360147e-10
2.74551421083e-11
4.32357688112e-10
2.66038656788e-11
4.18840546062e-10
2.56090694158e-11
4.05870053836e-10
2.45094439368e-11
3.93486716559e-10
2.33396705083e-11
3.81715609173e-10
2.21297969659e-11
3.70568694176e-10
2.09050278485e-11
3.60047115989e-10
1.96858401889e-11
3.50143357699e-10
1.8488326701e-11
3.40843189278e-10
1.73246759749e-11
3.32127369642e-10
1.62037150956e-11
3.23973093108e-10
1.51314598246e-11
3.16355187782e-10
1.41116352711e-11
3.0924708642e-10
1.31461455889e-11
3.02621595102e-10
1.22354823592e-11
2.96451488487e-10
1.13790696715e-11
2.90709958926e-10
1.05755486864e-11
2.85370945692e-10
9.82300761906e-12
2.80409366874e-10
9.11916413632e-12
2.75801274117e-10
8.46150766085e-12
2.71523946519e-10
7.84740855196e-12
2.67555937664e-10
7.27420062555e-12
2.63877086595e-10
6.73924255586e-12
2.60468501616e-10
6.23996298877e-12
2.57312523487e-10
5.77389339116e-12
2.5439267308e-10
5.33869204973e-12
2.5169358697e-10
4.93216210566e-12
2.49200943215e-10
4.55226608475e-12
2.469013785e-10
4.19713915958e-12
2.44782396683e-10
3.8651031432e-12
2.42832268082e-10
3.55468328425e-12
2.41039917597e-10
3.26462987995e-12
2.39394799326e-10
2.9939470744e-12
2.37886753993e-10
2.7419313267e-12
2.36505845407e-10
2.50822261277e-12
2.35242171135e-10
2.29287158951e-12
2.34085643661e-10
2.09642642988e-12
2.33025739466e-10
1.92004249456e-12
2.32051219374e-10
1.765616645e-12
2.31149834045e-10
1.63594283444e-12
2.30308053148e-10
1.53487351508e-12
2.29510903149e-10
1.4674411428e-12
2.28742091655e-10
1.4398229518e-12
2.27984768309e-10
1.4588586506e-12
2.27223570576e-10
1.53040126206e-12
2.2644905781e-10
1.65463247859e-12
2.25664846958e-10
1.81358291185e-12
1.94125634671e-12
9.71727314186e-10
1.55672897996e-10
9.86500677318e-10
2.91618327875e-10
9.6774571032e-10
3.19102277311e-10
9.27079647366e-10
2.99145052441e-10
8.76363445303e-10
2.63893425435e-10
8.23128969937e-10
2.26827866263e-10
7.71536667892e-10
1.92877672038e-10
7.23629469018e-10
1.63429298769e-10
6.80229333865e-10
1.38476840222e-10
6.4149362598e-10
1.17527885119e-10
6.07240792106e-10
9.99753567212e-11
5.77134154453e-10
8.52411987715e-11
5.5078226928e-10
7.28234514841e-11
5.27791512939e-10
6.23037549965e-11
5.0779187767e-10
5.33399875135e-11
4.90448065604e-10
4.56545524505e-11
4.75462742929e-10
3.90225706429e-11
4.62575798907e-10
3.32614978228e-11
4.51561731497e-10
2.822252684e-11
4.42226306907e-10
2.37836759838e-11
4.34403093152e-10
1.98443143727e-11
4.27950164459e-10
1.6320854053e-11
4.22747106861e-10
1.31433658933e-11
4.18692367129e-10
1.02529177913e-11
4.15700941088e-10
7.59947464966e-12
4.13702376052e-10
5.14023515591e-12
4.12639052465e-10
2.83830934685e-12
4.1246470793e-10
6.61663942515e-13
4.13143166969e-10
-1.41771984558e-12
4.14647240408e-10
-3.42451303319e-12
4.16957764618e-10
-5.38056842164e-12
4.20062750301e-10
-7.30533388693e-12
4.23956610326e-10
-9.21615984014e-12
4.28639438398e-10
-1.11285117133e-11
4.34116309202e-10
-1.30560924855e-11
4.40396570246e-10
-1.50108757222e-11
4.47493092899e-10
-1.70030459194e-11
4.5542144831e-10
-1.90408396195e-11
4.64198969941e-10
-2.11302782734e-11
4.73843662085e-10
-2.32747820466e-11
4.84372909913e-10
-2.54746536265e-11
4.95801945781e-10
-2.772642292e-11
5.08142026108e-10
-3.00220488737e-11
5.21398278412e-10
-3.23479844065e-11
5.35567187319e-10
-3.46841267347e-11
5.50633707909e-10
-3.7002699279e-11
5.66568023406e-10
-3.92671445441e-11
5.83322008767e-10
-4.14311491723e-11
6.00825519781e-10
-4.34379708408e-11
6.18982702953e-10
-4.5220285021e-11
6.37668606475e-10
-4.67008074502e-11
6.56726462451e-10
-4.77939591508e-11
6.75966085415e-10
-4.84088071136e-11
6.95163875678e-10
-4.84534184312e-11
7.14064900213e-10
-4.78406022263e-11
7.32387433119e-10
-4.64947899727e-11
7.49830156738e-10
-4.43595470139e-11
7.66081960907e-10
-4.14049534126e-11
7.80833943278e-10
-3.76338847097e-11
7.9379284394e-10
-3.30861129241e-11
8.04694789946e-10
-2.7839206623e-11
8.13317970377e-10
-2.20055267876e-11
8.19492821478e-10
-1.57252542047e-11
8.23108579507e-10
-9.15626836332e-12
8.2411565057e-10
-2.46254276833e-12
8.22523998384e-10
4.19687508081e-12
8.18398401025e-10
1.06764958751e-11
8.11851754573e-10
1.68497066922e-11
8.03037541597e-10
2.26109293514e-11
7.9214228645e-10
2.7875423976e-11
7.79378425576e-10
3.25778529259e-11
7.64977675753e-10
3.66706175836e-11
7.49184769423e-10
4.01226076863e-11
7.3225137037e-10
4.29185533046e-11
7.14430052575e-10
4.50587909833e-11
6.9596836831e-10
4.65590372857e-11
6.77103180926e-10
4.74497282703e-11
6.58055544751e-10
4.77746057791e-11
6.39026442557e-10
4.75884486449e-11
6.20193639213e-10
4.69540814713e-11
6.01709794801e-10
4.59389718233e-11
5.83701841817e-10
4.46118046643e-11
5.66271502097e-10
4.30393957412e-11
5.49496729477e-10
4.12842037e-11
5.33433819614e-10
3.94025679443e-11
5.18119928289e-10
3.74436762223e-11
5.03575768199e-10
3.54491761314e-11
4.8980830103e-10
3.34532957546e-11
4.76813291535e-10
3.14833247223e-11
4.6457763822e-10
2.95603179158e-11
4.5308143399e-10
2.7699908007e-11
4.42299740879e-10
2.59131416683e-11
4.32204083615e-10
2.4207281305e-11
4.2276368096e-10
2.25865370718e-11
4.13946440935e-10
2.10527112766e-11
4.05719749857e-10
1.96057497467e-11
3.98051084978e-10
1.82442026884e-11
3.90908479459e-10
1.69656024342e-11
3.8426086534e-10
1.57667677554e-11
3.78078317456e-10
1.46440452951e-11
3.72332217658e-10
1.3593498382e-11
3.66995355851e-10
1.26110527892e-11
3.6204198122e-10
1.1692607896e-11
3.57447814636e-10
1.0834120667e-11
3.53190030787e-10
1.00316687431e-11
3.49247216721e-10
9.28149804939e-12
3.45599311727e-10
8.58005947846e-12
3.42227532037e-10
7.92403861318e-12
3.3911428256e-10
7.31038194048e-12
3.36243056764e-10
6.73632271317e-12
3.33598324884e-10
6.19940940701e-12
3.311654098e-10
5.6975396702e-12
3.28930349371e-10
5.22900266674e-12
3.26879743541e-10
4.79253276278e-12
3.25000584726e-10
4.38737746451e-12
3.23280070573e-10
4.01338218737e-12
3.2170540038e-10
3.6710934593e-12
3.20263560314e-10
3.36187976197e-12
3.18941110459e-10
3.08806404857e-12
3.17723999981e-10
2.85305118058e-12
3.16597460049e-10
2.66141162707e-12
3.15546061548e-10
2.51883811902e-12
3.14554083114e-10
2.43180015667e-12
3.1360641212e-10
2.40652869431e-12
3.12690262565e-10
2.44655017952e-12
3.11797771397e-10
2.54712328276e-12
3.10927894703e-10
2.68345945937e-12
2.79018231572e-12
9.63883927362e-10
1.29288966051e-10
9.87461410502e-10
2.68040834703e-10
9.89261302329e-10
3.17302375541e-10
9.71373805573e-10
3.17032539344e-10
9.40749678681e-10
2.94517542333e-10
9.0344008116e-10
2.64137453802e-10
8.63644544366e-10
2.3267319897e-10
8.24014573428e-10
2.03059260027e-10
7.86109959936e-10
1.76381444251e-10
7.50772274448e-10
1.52865561402e-10
7.18389453923e-10
1.32358168326e-10
6.89072650683e-10
1.14557993415e-10
6.62770836548e-10
9.91252573716e-11
6.39343530258e-10
8.57310534256e-11
6.18606112096e-10
7.40773982201e-11
6.00357491612e-10
6.39031659195e-11
5.84396551814e-10
5.49835038804e-11
5.70531531018e-10
4.71265125419e-11
5.58585011201e-10
4.01690410702e-11
5.48396212699e-10
3.39724694123e-11
5.39821670897e-10
2.84188516117e-11
5.32734971622e-10
2.34075492911e-11
5.27025967097e-10
1.88523668961e-11
5.22599732838e-10
1.4679149051e-11
5.19375422829e-10
1.08237821584e-11
5.17285115651e-10
7.23054033472e-12
5.16272702652e-10
3.85072081622e-12
5.16292843565e-10
6.41521963116e-13
5.17309998035e-10
-2.4348749589e-12
5.19297528627e-10
-5.41204385628e-12
5.22236871736e-10
-8.319911392e-12
5.26116760161e-10
-1.11852218177e-11
5.30932479016e-10
-1.40318778863e-11
5.36685134928e-10
-1.68811665101e-11
5.43380914803e-10
-1.9751870977e-11
5.51030307781e-10
-2.26602670422e-11
5.59647260126e-10
-2.56199963586e-11
5.69248229806e-10
-2.86418071224e-11
5.79851103192e-10
-3.17331492196e-11
5.91473933381e-10
-3.48976094891e-11
6.04133456027e-10
-3.81341732062e-11
6.17843337582e-10
-4.14363010261e-11
6.32612110977e-10
-4.47908184078e-11
6.48440759115e-10
-4.81766281931e-11
6.65319916525e-10
-5.15632792667e-11
6.83226679327e-10
-5.49094565925e-11
7.02121043507e-10
-5.81615025917e-11
7.21942037298e-10
-6.1252136111e-11
7.42603674707e-10
-6.40996006588e-11
7.63990937488e-10
-6.66075394127e-11
7.85956086029e-10
-6.86659468099e-11
8.08315699964e-10
-7.01535630835e-11
8.30848937377e-10
-7.09420337554e-11
8.53297556894e-10
-7.09020264402e-11
8.75368238885e-10
-6.99112721085e-11
8.96737649404e-10
-6.78641879277e-11
9.17060496877e-10
-6.46823817529e-11
9.35980543076e-10
-6.03249870262e-11
9.53144159655e-10
-5.47974893295e-11
9.68215600234e-10
-4.81575426724e-11
9.80892729361e-10
-4.05163266667e-11
9.9092161023e-10
-3.20344008827e-11
9.98108250824e-10
-2.29118908903e-11
1.00232610388e-09
-1.33741207243e-11
1.00351863769e-09
-3.65507931931e-12
1.00169724588e-09
6.01826080584e-12
9.96935580285e-10
1.5438152278e-11
9.893617659e-10
2.44235092266e-11
9.79149835176e-10
3.28228460466e-11
9.66511307518e-10
4.05139359749e-11
9.51687341128e-10
4.74018024916e-11
9.34941473202e-10
5.34164679815e-11
9.16552730835e-10
5.85113321773e-11
8.96808855999e-10
6.26624102689e-11
8.75999497479e-10
6.5868131886e-11
8.54409410707e-10
6.81491069362e-11
8.32311893938e-10
6.95472285555e-11
8.09962817306e-10
7.01236666925e-11
7.87595630383e-10
6.99556206476e-11
7.65417662839e-10
6.91320349201e-11
7.43607887044e-10
6.77487342977e-11
7.22316140592e-10
6.59035385258e-11
7.0166365437e-10
6.36918700071e-11
6.81744630217e-10
6.12032164549e-11
6.62628567568e-10
5.85186196411e-11
6.44363044605e-10
5.57091886013e-11
6.26976697697e-10
5.28355127213e-11
6.10482198279e-10
4.99477850569e-11
5.94879083332e-10
4.70864296801e-11
5.80156347958e-10
4.42830433879e-11
5.66294750351e-10
4.15614957555e-11
5.53268811588e-10
3.89390706065e-11
5.4104851442e-10
3.64275686686e-11
5.29600719738e-10
3.40343219813e-11
5.18890327147e-10
3.17630941411e-11
5.08881209957e-10
2.9614857285e-11
4.99536955336e-10
2.75884477611e-11
4.90821439221e-10
2.56811091428e-11
4.82699263015e-10
2.38889347319e-11
4.75136076244e-10
2.22072230536e-11
4.68098806054e-10
2.06307598126e-11
4.61555811423e-10
1.91540389486e-11
4.55476976963e-10
1.77714342036e-11
4.49833758605e-10
1.64773312204e-11
4.44599191055e-10
1.52662288598e-11
4.39747864908e-10
1.41328171524e-11
4.35255879481e-10
1.30720382688e-11
4.31100775916e-10
1.20791359552e-11
4.27261453825e-10
1.11496982338e-11
4.23718073587e-10
1.02796975738e-11
4.20451945623e-10
9.46553241956e-12
4.17445407145e-10
8.70407361058e-12
4.14681686622e-10
7.99271906351e-12
4.12144755938e-10
7.32945971062e-12
4.09819170811e-10
6.71295923774e-12
4.07689900978e-10
6.14264902171e-12
4.05742154133e-10
5.61883764556e-12
4.03961201335e-10
5.14283020816e-12
4.02332218279e-10
4.71704504416e-12
4.00840166614e-10
4.34510104065e-12
3.99469754488e-10
4.03182219574e-12
3.9820553501e-10
3.78305626455e-12
3.9703222313e-10
3.60511093543e-12
3.95935316741e-10
3.50343420277e-12
3.94902026517e-10
3.4798397515e-12
3.93922099864e-10
3.5270495707e-12
3.92986604066e-10
3.61895512774e-12
3.69692501199e-12
9.57468902284e-10
1.09320059002e-10
9.82254687279e-10
2.43255039233e-10
9.94416287812e-10
3.05140764868e-10
9.91223488197e-10
3.20225328518e-10
9.75834215363e-10
3.09906804438e-10
9.52360258707e-10
2.87611399704e-10
9.24261651882e-10
2.60771795152e-10
8.94078255484e-10
2.3324264596e-10
8.63552968313e-10
2.06906721171e-10
8.33824774117e-10
1.82593745595e-10
8.05600832522e-10
1.60582100194e-10
7.79289564837e-10
1.40869251682e-10
7.55097786042e-10
1.23317027084e-10
7.3309953861e-10
1.07729292143e-10
7.13284003266e-10
9.38929252404e-11
6.95588407085e-10
8.15987541977e-11
6.79920359762e-10
7.06515437411e-11
6.66172823569e-10
6.08740417376e-11
6.54233992522e-10
5.21078655947e-11
6.43993677748e-10
4.42127781594e-11
6.35347311041e-10
3.7065212789e-11
6.28198336917e-10
3.05565183947e-11
6.22459524073e-10
2.45911752234e-11
6.18053560891e-10
1.90851082225e-11
6.14913183836e-10
1.39641556948e-11
6.12981007631e-10
9.16271350671e-12
6.12209170256e-10
4.62255562141e-12
6.12558867194e-10
2.91822905309e-13
6.13999821104e-10
-3.8758305717e-12
6.16509713089e-10
-7.92193714233e-12
6.20073597076e-10
-1.18837963151e-11
6.2468329523e-10
-1.5794920563e-11
6.30336770969e-10
-1.96853539056e-11
6.37037469649e-10
-2.35818651734e-11
6.44793611115e-10
-2.75080121595e-11
6.53617413582e-10
-3.14840689596e-11
6.6352422327e-10
-3.55268052475e-11
6.74531519987e-10
-3.96491027712e-11
6.86657764039e-10
-4.38593919302e-11
6.99921046127e-10
-4.81608899224e-11
7.14337498054e-10
-5.25506231347e-11
7.2991942031e-10
-5.70182208782e-11
7.46673082387e-10
-6.15444776247e-11
7.64596155807e-10
-6.60996982176e-11
7.83674748953e-10
-7.06418684196e-11
8.03880030789e-10
-7.5114733753e-11
8.25164459344e-10
-7.9445925732e-11
8.47457675472e-10
-8.35453460061e-11
8.70662184879e-10
-8.73041029721e-11
8.94649035345e-10
-9.05943818681e-11
9.19253798247e-10
-9.32707007693e-11
9.44273277742e-10
-9.51730326804e-11
9.69463478602e-10
-9.61322237942e-11
9.94539439558e-10
-9.59779756919e-11
1.01917754793e-09
-9.45493680101e-11
1.04302086429e-09
-9.17074912197e-11
1.06568778415e-09
-8.73492882259e-11
1.08678405182e-09
-8.142124134e-11
1.10591773485e-09
-7.39311595292e-11
1.1227162882e-09
-6.49560842952e-11
1.13684431789e-09
-5.464434639e-11
1.14802019114e-09
-4.32102665881e-11
1.15602943235e-09
-3.09211276049e-11
1.16073314258e-09
-1.80778299193e-11
1.16207057781e-09
-4.99251720599e-12
1.1600562627e-09
8.03256964741e-12
1.15477307073e-09
2.07213347101e-11
1.14636312672e-09
3.28334409202e-11
1.13501815327e-09
4.41678049956e-11
1.12097029346e-09
5.45617796965e-11
1.10448379533e-09
6.38882834659e-11
1.08584744638e-09
7.20527991534e-11
1.06536739279e-09
7.89913677664e-11
1.04335996993e-09
8.46698152363e-11
1.02014434169e-09
8.90837426001e-11
9.96034999339e-10
9.22584323628e-11
9.71334412708e-10
9.42477990165e-11
9.46326285416e-10
9.5131778681e-11
9.21269897263e-10
9.50119943994e-11
8.96395920142e-10
9.40059985502e-11
8.71903906642e-10
9.22407351642e-11
8.47961437249e-10
8.98459960822e-11
8.24704730563e-10
8.69485655529e-11
8.02240407378e-10
8.36675291051e-11
7.80648058303e-10
8.01109586723e-11
7.59983282307e-10
7.63739549517e-11
7.40280916003e-10
7.25378696757e-11
7.21558240546e-10
6.86704513833e-11
7.03818018571e-10
6.48266426652e-11
6.87051270359e-10
6.10497827048e-11
6.71239742409e-10
5.73730148563e-11
6.56358053899e-10
5.38207502984e-11
6.42375527888e-10
5.04100858758e-11
6.29257727807e-10
4.71521132841e-11
6.16967726936e-10
4.40530862679e-11
6.05467141931e-10
4.11154336095e-11
5.94716961614e-10
3.83386194875e-11
5.84678200974e-10
3.57198613194e-11
5.75312407765e-10
3.32547196376e-11
5.66582046248e-10
3.09375764678e-11
5.58450779459e-10
2.87620187326e-11
5.50883668425e-10
2.67211423829e-11
5.43847303851e-10
2.48077914754e-11
5.37309883252e-10
2.30147448424e-11
5.31241244168e-10
2.13348613141e-11
5.25612862077e-10
1.97611929795e-11
5.20397819869e-10
1.82870745902e-11
5.15570754221e-10
1.69061961046e-11
5.11107782937e-10
1.56126644111e-11
5.06986416263e-10
1.44010595354e-11
5.03185454337e-10
1.32664900223e-11
4.99684872321e-10
1.22046516865e-11
4.96465694392e-10
1.12118934252e-11
4.93509857725e-10
1.02852931677e-11
4.90800067997e-10
9.42274609943e-12
4.88319648808e-10
8.62306566281e-12
4.86052389222e-10
7.88609498167e-12
4.83982396208e-10
7.21282123947e-12
4.82093962938e-10
6.60547657428e-12
4.80371469226e-10
6.06759322328e-12
4.78799337107e-10
5.60395297365e-12
4.77362069857e-10
5.22032234396e-12
4.76044399572e-10
4.9227802284e-12
4.74831532244e-10
4.71630073996e-12
4.7370934065e-10
4.60203079529e-12
4.72663929887e-10
4.57246005638e-12
4.71679029996e-10
4.60385496217e-12
4.64723899558e-12
9.52831041394e-10
9.39890119743e-11
9.76131891167e-10
2.19954178063e-10
9.93074169302e-10
2.88198475515e-10
9.9896363156e-10
3.1433585519e-10
9.9444277763e-10
3.14427647173e-10
9.81931004783e-10
3.00123161377e-10
9.63977233872e-10
2.78725555018e-10
9.42718240043e-10
2.54501628928e-10
9.19787274965e-10
2.29837675606e-10
8.96371336557e-10
2.06009673607e-10
8.73302207552e-10
1.83651219076e-10
8.51142690846e-10
1.6302875857e-10
8.3025768227e-10
1.44202026172e-10
8.10869440568e-10
1.27117524717e-10
7.93099320359e-10
1.11663036708e-10
7.76998740505e-10
9.76993257216e-11
7.62571891386e-10
8.50783849647e-11
7.497922254e-10
7.36537002817e-11
7.38614325551e-10
6.32857584745e-11
7.28982366562e-10
5.38447306622e-11
7.20836079935e-10
4.52114934254e-11
7.14114900416e-10
3.72776924218e-11
7.08760793992e-10
2.99452766564e-11
7.04720134531e-10
2.31257631898e-11
7.01944897152e-10
1.67393890709e-11
7.00393363016e-10
1.07142441182e-11
7.00030475863e-10
4.98543971281e-12
7.00827950525e-10
-5.05654377707e-13
7.02764200434e-10
-5.81208268193e-12
7.05824134363e-10
-1.09818728797e-11
7.09998858046e-10
-1.605852144e-11
7.15285291302e-10
-2.10813549232e-11
7.21685709724e-10
-2.608577312e-11
7.29207210099e-10
-3.1103366052e-11
7.37861091476e-10
-3.61618937704e-11
7.47662137535e-10
-4.12851149957e-11
7.58627780022e-10
-4.64924474557e-11
7.70777117657e-10
-5.17984398641e-11
7.84129759675e-10
-5.72120331237e-11
7.9870445841e-10
-6.27355875176e-11
8.14517490996e-10
-6.83636542188e-11
8.31580747195e-10
-7.40814751566e-11
8.49899478986e-10
-7.98632070063e-11
8.6946966949e-10
-8.56698857473e-11
8.90274985626e-10
-9.14471809329e-11
9.12283293556e-10
-9.71230373328e-11
9.35442741823e-10
-1.02605368838e-10