/*--------------------------------*- C++ -*----------------------------------*\
  =========                 |
  \\      /  F ield         | OpenFOAM: The Open Source CFD Toolbox
   \\    /   O peration     | Website:  https://openfoam.org
    \\  /    A nd           | Version:  7
     \\/     M anipulation  |
\*---------------------------------------------------------------------------*/
FoamFile
{
    version     2.0;
    format      ascii;
    class       volVectorField;
    location    "3000";
    object      U;
}
// * * * * * * * * * * * * * * * * * * * * * * * * * * * * * * * * * * * * * //

dimensions      [0 1 -1 0 0 0 0];

internalField   nonuniform List<vector> 
8192
(
(0.0010434839688 0.000156516031197 0)
(0.000759391453043 0.000127576482876 0)
(0.000549424825035 8.23901416193e-05 0)
(0.00041416820869 5.28664709213e-05 0)
(0.000326314463503 3.49872700977e-05 0)
(0.000267217313788 2.41098751715e-05 0)
(0.000225817636873 1.72897972426e-05 0)
(0.000195683564447 1.28442707612e-05 0)
(0.000173011727923 9.8275614832e-06 0)
(0.000155482910963 7.70125138107e-06 0)
(0.000141630910909 6.15074479112e-06 0)
(0.000130493913211 4.98624926607e-06 0)
(0.000121418373361 4.0892872112e-06 0)
(0.000113945739635 3.38334343315e-06 0)
(0.000107745016942 2.81737649026e-06 0)
(0.000102571338164 2.35629985218e-06 0)
(9.82397109977e-05 1.97532523018e-06 0)
(9.46078822723e-05 1.65650177972e-06 0)
(9.15648411544e-05 1.38653800402e-06 0)
(8.90229085413e-05 1.15539366928e-06 0)
(8.69121680143e-05 9.55346319581e-07 0)
(8.51764636995e-05 7.8035786587e-07 0)
(8.37704707309e-05 6.25635383584e-07 0)
(8.26575155472e-05 4.87320492384e-07 0)
(8.18079306075e-05 3.6226554635e-07 0)
(8.11977968996e-05 2.47869662308e-07 0)
(8.08079724836e-05 1.41956645741e-07 0)
(8.06233352293e-05 4.26828812446e-08 0)
(8.06321880635e-05 -5.15330776227e-08 0)
(8.08257886402e-05 -1.42064510745e-07 0)
(8.11979747278e-05 -2.30118256935e-07 0)
(8.17448641014e-05 -3.16767481759e-07 0)
(8.24646123183e-05 -4.02976804519e-07 0)
(8.33572141249e-05 -4.89620790714e-07 0)
(8.44243361242e-05 -5.77496732786e-07 0)
(8.5669169512e-05 -6.67331924678e-07 0)
(8.70962918839e-05 -7.59785471405e-07 0)
(8.87115266698e-05 -8.55444094741e-07 0)
(9.05217875645e-05 -9.54811335434e-07 0)
(9.25348936401e-05 -1.058289022e-06 0)
(9.47593385745e-05 -1.16614992907e-06 0)
(9.72039949446e-05 -1.27850017416e-06 0)
(9.98777319677e-05 -1.39523027892e-06 0)
(0.000102788923085 -1.51595394164e-06 0)
(0.000105944819019 -1.63993474758e-06 0)
(0.00010935076365 -1.76600227016e-06 0)
(0.000113009235595 -1.8924616768e-06 0)
(0.000116918709546 -2.01700388097e-06 0)
(0.000121072349874 -2.1366276586e-06 0)
(0.000125456575958 -2.24758924718e-06 0)
(0.000130049574027 -2.34539927303e-06 0)
(0.000134819871943 -2.42488875031e-06 0)
(0.000139725136086 -2.48036519836e-06 0)
(0.000144711385471 -2.50587374696e-06 0)
(0.000149712836941 -2.49556711593e-06 0)
(0.000154652586162 -2.44417143098e-06 0)
(0.000159444283296 -2.34751509924e-06 0)
(0.000163994875189 -2.20306643922e-06 0)
(0.000168208358895 -2.01040739046e-06 0)
(0.000171990333871 -1.77155846592e-06 0)
(0.000175252973078 -1.49107270588e-06 0)
(0.000177919892678 -1.17584029853e-06 0)
(0.000179930334752 -8.34596981906e-07 0)
(0.000181242133404 -4.77199003204e-07 0)
(0.000181833126198 -1.1379350188e-07 0)
(0.000181700960453 2.45957018124e-07 0)
(0.000180861542303 5.93456373145e-07 0)
(0.000179346585525 9.21493230984e-07 0)
(0.000177200765286 1.22431764265e-06 0)
(0.000174478893583 1.49754280026e-06 0)
(0.000171243372354 1.7379656084e-06 0)
(0.000167562001737 1.94339096797e-06 0)
(0.00016350608424 2.11251159964e-06 0)
(0.000159148700127 2.24485699505e-06 0)
(0.000154563034752 2.34079254032e-06 0)
(0.000149820694145 2.40153213546e-06 0)
(0.000144990021405 2.42912477566e-06 0)
(0.00014013449442 2.42638662921e-06 0)
(0.000135311324494 2.39676807988e-06 0)
(0.000130570376655 2.34416497633e-06 0)
(0.000125953499828 2.27269754112e-06 0)
(0.000121494301449 2.18648700989e-06 0)
(0.000117218343612 2.08945746591e-06 0)
(0.000113143690888 1.98518233015e-06 0)
(0.000109281712051 1.87678396688e-06 0)
(0.000105638030461 1.76688541852e-06 0)
(0.000102213526937 1.65760618493e-06 0)
(9.90053182e-05 1.55059086072e-06 0)
(9.6007657112e-05 1.44705872044e-06 0)
(9.32127229906e-05 1.34786403694e-06 0)
(9.06112886633e-05 1.25355903994e-06 0)
(8.81932643067e-05 1.16445415624e-06 0)
(8.59481268984e-05 1.08067217141e-06 0)
(8.38652488542e-05 1.0021948671e-06 0)
(8.1934141365e-05 9.28901699141e-07 0)
(8.01446278301e-05 8.60601006297e-07 0)
(7.8486961623e-05 7.97054486251e-07 0)
(7.69519005664e-05 7.37995992545e-07 0)
(7.55307485743e-05 6.83145587825e-07 0)
(7.4215372928e-05 6.32219840066e-07 0)
(7.29982039675e-05 5.84939128018e-07 0)
(7.1872222409e-05 5.41032691793e-07 0)
(7.08309383015e-05 5.00241962133e-07 0)
(6.98683645339e-05 4.62322662182e-07 0)
(6.89789870353e-05 4.27046030335e-07 0)
(6.81577330742e-05 3.94199482145e-07 0)
(6.73999385755e-05 3.63586946564e-07 0)
(6.67013148607e-05 3.3502909082e-07 0)
(6.60579148747e-05 3.08363624931e-07 0)
(6.54660985292e-05 2.83445865319e-07 0)
(6.49224964577e-05 2.60149773895e-07 0)
(6.442397098e-05 2.3836969602e-07 0)
(6.39675725695e-05 2.18023133251e-07 0)
(6.35504893323e-05 1.99054944919e-07 0)
(6.31699860334e-05 1.81443613415e-07 0)
(6.28233276751e-05 1.65210413432e-07 0)
(6.25076804727e-05 1.50432857567e-07 0)
(6.22199796325e-05 1.37264437775e-07 0)
(6.19567479945e-05 1.25964029503e-07 0)
(6.17138407906e-05 1.16940363579e-07 0)
(6.14860771625e-05 1.10820803117e-07 0)
(6.12666944126e-05 1.08559828286e-07 0)
(6.10465204e-05 1.1161241204e-07 0)
(6.0812699578e-05 1.22206996092e-07 0)
(6.05467544054e-05 1.43737138964e-07 0)
(6.022193774e-05 1.81078865395e-07 0)
(5.98012899758e-05 2.39568523685e-07 0)
(5.92543712571e-05 3.07350005654e-07 0)
(0.00121019534746 0.000302836713607 0)
(0.00116038330536 0.00031516035156 0)
(0.00102703993978 0.000238116255221 0)
(0.00088760897308 0.000171827928127 0)
(0.000766903206783 0.000124585311204 0)
(0.000668400039544 9.21121373292e-05 0)
(0.000589403418024 6.96838198479e-05 0)
(0.000526096770993 5.38909542586e-05 0)
(0.000475051754007 4.24977186159e-05 0)
(0.000433540083404 3.40715695148e-05 0)
(0.000399481038518 2.76914599695e-05 0)
(0.000371307447176 2.27561122478e-05 0)
(0.000347837562957 1.88648382411e-05 0)
(0.000328173474079 1.57445058407e-05 0)
(0.000311625786721 1.32046159191e-05 0)
(0.000297659199956 1.11093187619e-05 0)
(0.000285853446094 9.35968120434e-06 0)
(0.000275875184232 7.8822313554e-06 0)
(0.000267457620179 6.62140970255e-06 0)
(0.000260385576977 5.53449506056e-06 0)
(0.000254484432966 4.58812793173e-06 0)
(0.000249611828936 3.75588426777e-06 0)
(0.000245651379219 3.01655254088e-06 0)
(0.000242507849826 2.35288998502e-06 0)
(0.000240103423301 1.75071077373e-06 0)
(0.000238374777995 1.19820786215e-06 0)
(0.000237270784491 6.85441903505e-07 0)
(0.000236750674458 2.03951534275e-07 0)
(0.000236782574244 -2.53546691619e-07 0)
(0.000237342321391 -6.93389974927e-07 0)
(0.000238412500932 -1.12114884583e-06 0)
(0.000239981652726 -1.54176761021e-06 0)
(0.000242043610058 -1.9596709547e-06 0)
(0.000244596935039 -2.37884138744e-06 0)
(0.000247644420338 -2.80287066593e-06 0)
(0.000251192628818 -3.23498639393e-06 0)
(0.00025525144304 -3.67805345782e-06 0)
(0.000259833595546 -4.13454859113e-06 0)
(0.000264954148547 -4.60650524952e-06 0)
(0.000270629888523 -5.09542497191e-06 0)
(0.000276878597386 -5.60215084903e-06 0)
(0.000283718158076 -6.12669859437e-06 0)
(0.000291165449384 -6.66804161801e-06 0)
(0.000299234983784 -7.22384863102e-06 0)
(0.000307937244797 -7.79017653584e-06 0)
(0.0003172766892 -8.36112800728e-06 0)
(0.000327249397006 -8.92849309566e-06 0)
(0.000337840381513 -9.48140720673e-06 0)
(0.000349020615384 -1.000607369e-05 0)
(0.000360743887851 -1.04856158074e-05 0)
(0.00037294368113 -1.09001370271e-05 0)
(0.000385530335229 -1.1227074975e-05 0)
(0.000398388848468 -1.14419274361e-05 0)
(0.00041137771997 -1.15194027643e-05 0)
(0.00042432926024 -1.14349997441e-05 0)
(0.000437051757257 -1.11669548251e-05 0)
(0.000449333773337 -1.06984150472e-05 0)
(0.000460950657112 -1.00196132388e-05 0)
(0.000471673092459 -9.12975243788e-06 0)
(0.000481277195335 -8.03826668313e-06 0)
(0.00048955535387 -6.76514128003e-06 0)
(0.000496326754873 -5.34007607039e-06 0)
(0.000501446437299 -3.80047515178e-06 0)
(0.000504811837106 -2.18851526557e-06 0)
(0.000506366158433 -5.47794420463e-07 0)
(0.000506098448505 1.07982326217e-06 0)
(0.000504040812493 2.6566268298e-06 0)
(0.000500263602761 4.15046522713e-06 0)
(0.00049486953533 5.535203443e-06 0)
(0.000487987553602 6.79047567604e-06 0)
(0.000479766981582 7.90108734161e-06 0)
(0.000470372191507 8.85638837652e-06 0)
(0.00045997775825 9.64982140046e-06 0)
(0.000448763940875 1.02787039549e-05 0)
(0.000436912324856 1.07441817759e-05 0)
(0.00042460154378 1.1051219502e-05 0)
(0.000412003126003 1.12084834428e-05 0)
(0.000399277627625 1.12280097913e-05 0)
(0.000386571280125 1.11246200106e-05 0)
(0.000374013381115 1.09151188977e-05 0)
(0.000361714595275 1.06173666765e-05 0)
(0.000349766231745 1.0249341533e-05 0)
(0.000338240454344 9.82830120786e-06 0)
(0.000327191288542 9.3701212908e-06 0)
(0.000316656230727 8.8888468394e-06 0)
(0.000306658244788 8.39645610113e-06 0)
(0.000297207942932 7.90280760007e-06 0)
(0.000288305780804 7.41572757433e-06 0)
(0.000279944140137 6.94119145186e-06 0)
(0.000272109215852 6.48355772528e-06 0)
(0.000264782662852 6.04582094694e-06 0)
(0.000257942987723 5.62986020933e-06 0)
(0.000251566691872 5.23666804738e-06 0)
(0.000245629185964 4.86655181298e-06 0)
(0.000240105502767 4.51930454613e-06 0)
(0.000234970838007 4.1943458427e-06 0)
(0.000230200948505 3.89083510249e-06 0)
(0.000225772434481 3.60776062782e-06 0)
(0.00022166292985 3.34400826247e-06 0)
(0.000217851220699 3.0984132519e-06 0)
(0.00021431730876 2.86979859783e-06 0)
(0.000211042433463 2.65700283728e-06 0)
(0.000208009063348 2.45889966194e-06 0)
(0.000205200865186 2.27441144936e-06 0)
(0.000202602657137 2.10251835468e-06 0)
(0.00020020035051 1.94226437143e-06 0)
(0.000197980883317 1.79276148838e-06 0)
(0.000195932147522 1.65319294957e-06 0)
(0.000194042910865 1.52281648601e-06 0)
(0.000192302733107 1.40096838705e-06 0)
(0.000190701875641 1.28706928768e-06 0)
(0.000189231202332 1.18063268508e-06 0)
(0.000187882068426 1.08127739196e-06 0)
(0.000186646193003 9.88745478683e-07 0)
(0.000185515508943 9.02927751984e-07 0)
(0.000184481982489 8.23899552551e-07 0)
(0.000183537392263 7.51970731921e-07 0)
(0.00018267305512 6.87755214547e-07 0)
(0.000181879483927 6.322677984e-07 0)
(0.000181145961564 5.87058886421e-07 0)
(0.000180460019665 5.54401521042e-07 0)
(0.000179806828862 5.37547349338e-07 0)
(0.000179168562776 5.41060648002e-07 0)
(0.000178523948742 5.71190240443e-07 0)
(0.000177848617519 6.36027841282e-07 0)
(0.000177117864987 7.44355759643e-07 0)
(0.000176316436711 8.98366803761e-07 0)
(0.000175458587915 1.05331888365e-06 0)
(0.00122478454269 0.000267856820307 0)
(0.00124106226161 0.000383674556379 0)
(0.00119605926258 0.000347948397551 0)
(0.00111309798075 0.000284388016037 0)
(0.00101979748151 0.000226031469806 0)
(0.000929864570029 0.000179102038087 0)
(0.000848738426374 0.000142816665081 0)
(0.000777822330726 0.000114980832989 0)
(0.000716755915727 9.35192537877e-05 0)
(0.000664520286552 7.67973167997e-05 0)
(0.000619941892822 6.36031348428e-05 0)
(0.000581903919126 5.30559869214e-05 0)
(0.000549421394422 4.45173580561e-05 0)
(0.000521655970159 3.75214858753e-05 0)
(0.000497906212411 3.17250689205e-05 0)
(0.000477589757644 2.68718965165e-05 0)
(0.000460224407405 2.27681981302e-05 0)
(0.000445410928547 1.92654471442e-05 0)
(0.00043281839142 1.6248288543e-05 0)
(0.000422172061032 1.36259847525e-05 0)
(0.0004132435516 1.13262881393e-05 0)
(0.000405842877259 9.29100041662e-06 0)
(0.000399812046968 7.47271591104e-06 0)
(0.000395019899452 5.83240455184e-06 0)
(0.000391357927596 4.33759710866e-06 0)
(0.00038873689089 2.96100751908e-06 0)
(0.000387084055754 1.67947627779e-06 0)
(0.000386340936796 4.73152904061e-07 0)
(0.000386461437976 -6.75140979184e-07 0)
(0.000387410311945 -1.78040752576e-06 0)
(0.000389161871394 -2.8558598494e-06 0)
(0.000391698898695 -3.91322418025e-06 0)
(0.000395011706959 -4.96296744271e-06 0)
(0.000399097310314 -6.01445974292e-06 0)
(0.000403958664707 -7.07607760721e-06 0)
(0.000409603941882 -8.15524984573e-06 0)
(0.000416045798783 -9.25844502805e-06 0)
(0.000423300602922 -1.03910967239e-05 0)
(0.000431387571277 -1.15574606761e-05 0)
(0.000440327776647 -1.27603962013e-05 0)
(0.000450142971355 -1.40010635543e-05 0)
(0.000460854174733 -1.52785293022e-05 0)
(0.000472479968909 -1.65892746375e-05 0)
(0.00048503444881 -1.79266069682e-05 0)
(0.00049852477907 -1.92799852532e-05 0)
(0.000512948325469 -2.06342845201e-05 0)
(0.000528289354883 -2.19690468118e-05 0)
(0.000544515338729 -2.32577933892e-05 0)
(0.000561572953258 -2.44675059699e-05 0)
(0.000579383946524 -2.55584178455e-05 0)
(0.000597841133912 -2.64842828113e-05 0)
(0.000616804884058 -2.71932992475e-05 0)
(0.000636100550532 -2.76298474918e-05 0)
(0.000655517371501 -2.77371388198e-05 0)
(0.000674809374955 -2.74607704074e-05 0)
(0.000693698767117 -2.67530361539e-05 0)
(0.00071188212921 -2.55776751555e-05 0)
(0.000729039498104 -2.39145703418e-05 0)
(0.000744846070633 -2.17637700684e-05 0)
(0.000758985879095 -1.91481307767e-05 0)
(0.000771166389012 -1.61139208992e-05 0)
(0.000781132651508 -1.27289414521e-05 0)
(0.000788679508642 -9.07813832678e-06 0)
(0.000793660502258 -5.2572429966e-06 0)
(0.00079599260844 -1.365500762e-06 0)
(0.000795656619142 2.50121307161e-06 0)
(0.000792693715925 6.25575166657e-06 0)
(0.000787199294999 9.82293843161e-06 0)
(0.000779315259516 1.31407935933e-05 0)
(0.000769221830177 1.6160251336e-05 0)
(0.000757129576351 1.88440878601e-05 0)
(0.000743271976935 2.11657244982e-05 0)
(0.000727898509899 2.31083306689e-05 0)
(0.000711268108264 2.46643577299e-05 0)
(0.0006936428121 2.58353840105e-05 0)
(0.000675281549797 2.66320049623e-05 0)
(0.000656434134784 2.70734761316e-05 0)
(0.00063733570251 2.71868945546e-05 0)
(0.000618201889729 2.70058440301e-05 0)
(0.000599225052147 2.65685817961e-05 0)
(0.000580571733851 2.59159600846e-05 0)
(0.000562381470886 2.50893285575e-05 0)
(0.000544766869871 2.4128648168e-05 0)
(0.000527814783934 2.30709830802e-05 0)
(0.000511588333053 2.19494519978e-05 0)
(0.000496129488469 2.07926407408e-05 0)
(0.000481461954143 1.96244192382e-05 0)
(0.000467594118506 1.84640744345e-05 0)
(0.000454521903161 1.73266618201e-05 0)
(0.000442231390065 1.62234863122e-05 0)
(0.000430701157709 1.51626395682e-05 0)
(0.00041990429616 1.41495403408e-05 0)
(0.00040981009977 1.31874424495e-05 0)
(0.00040038545549 1.22778901228e-05 0)
(0.000391595956174 1.14211115569e-05 0)
(0.000383406773497 1.06163494262e-05 0)
(0.000375783326345 9.86213177553e-06 0)
(0.000368691778955 9.15648951148e-06 0)
(0.000362099400042 8.49712772189e-06 0)
(0.000355974810234 7.88155831478e-06 0)
(0.000350288141207 7.30720094306e-06 0)
(0.000345011125877 6.77145854584e-06 0)
(0.000340117135526 6.27177293556e-06 0)
(0.000335581176455 5.80566509999e-06 0)
(0.000331379856066 5.37076409469e-06 0)
(0.000327491325803 4.96482780111e-06 0)
(0.000323895206432 4.58575828944e-06 0)
(0.000320572499319 4.23161415299e-06 0)
(0.000317505485898 3.90062192321e-06 0)
(0.000314677616117 3.59118853338e-06 0)
(0.000312073385449 3.3019168157e-06 0)
(0.000309678198835 3.03162611223e-06 0)
(0.000307478218831 2.77938038632e-06 0)
(0.000305460194124 2.54452658285e-06 0)
(0.000303611263616 2.32674661074e-06 0)
(0.000301918730587 2.12612695641e-06 0)
(0.000300369801469 1.94325078948e-06 0)
(0.000298951285201 1.77931797329e-06 0)
(0.000297649253658 1.6362984217e-06 0)
(0.000296448674188 1.51712193688e-06 0)
(0.000295333047803 1.42589976758e-06 0)
(0.00029428413203 1.36814985244e-06 0)
(0.000293281916675 1.35093492512e-06 0)
(0.000292305190377 1.38265278074e-06 0)
(0.000291333336886 1.47174751004e-06 0)
(0.000290350482167 1.62224168055e-06 0)
(0.000289352899052 1.81949134366e-06 0)
(0.000288354568871 1.98837293989e-06 0)
(0.00122190548108 0.000221166792615 0)
(0.00125326591456 0.000382726417535 0)
(0.00125071768809 0.000396447741428 0)
(0.00121268822892 0.000356879392394 0)
(0.00115420357931 0.000305325220977 0)
(0.00108767514575 0.000256269610338 0)
(0.00102058600821 0.00021386435258 0)
(0.000956906327622 0.000178528900703 0)
(0.000898469633845 0.000149474274397 0)
(0.000845902694301 0.000125644845142 0)
(0.000799190027575 0.000106046647966 0)
(0.000757999965798 8.98404911534e-05 0)
(0.000721866511189 7.6348815976e-05 0)
(0.00069028722062 6.50347266656e-05 0)
(0.00066277336999 5.54754215004e-05 0)
(0.000638873563695 4.73377911751e-05 0)
(0.000618182917461 4.03582873675e-05 0)
(0.000600344666775 3.43270761751e-05 0)
(0.000585048019459 2.9075834022e-05 0)
(0.000572024344579 2.44684359909e-05 0)
(0.000561042816038 2.03938677257e-05 0)
(0.000551906084871 1.67608206086e-05 0)
(0.000544446253645 1.34935529255e-05 0)
(0.000538521263354 1.05287024457e-05 0)
(0.000534011717259 7.81281565707e-06 0)
(0.00053081812297 5.30041981902e-06 0)
(0.00052885851425 2.95250900201e-06 0)
(0.000528066406653 7.3534917424e-07 0)
(0.000528389039936 -1.38046806636e-06 0)
(0.000529785860721 -3.42077040282e-06 0)
(0.000532227203216 -5.40839305036e-06 0)
(0.000535693129548 -7.36363773944e-06 0)
(0.000540172390802 -9.30461559021e-06 0)
(0.000545661471184 -1.12474866427e-05 0)
(0.000552163678464 -1.32066028648e-05 0)
(0.000559688242847 -1.51945558387e-05 0)
(0.000568249384413 -1.722212643e-05 0)
(0.000577865306374 -1.9298129584e-05 0)
(0.00058855706768 -2.14291448569e-05 0)
(0.000600347284497 -2.36191207612e-05 0)
(0.000613258606079 -2.58688409553e-05 0)
(0.000627311907644 -2.81752415508e-05 0)
(0.000642524142009 -3.05305745776e-05 0)
(0.000658905794893 -3.2921422299e-05 0)
(0.000676457898067 -3.53275845751e-05 0)
(0.000695168572945 -3.77208863215e-05 0)
(0.000715009108042 -4.00639879012e-05 0)
(0.000735929620591 -4.23093255337e-05 0)
(0.000757854418271 -4.43983612766e-05 0)
(0.00078067726255 -4.62613736987e-05 0)
(0.000804256838034 -4.78180618254e-05 0)
(0.000828412844112 -4.89792468793e-05 0)
(0.000852923230635 -4.96499218068e-05 0)
(0.0008775231751 -4.97337975985e-05 0)
(0.00090190641657 -4.91393232041e-05 0)
(0.000925729493333 -4.77869183422e-05 0)
(0.000948619257509 -4.56168852964e-05 0)
(0.000970183755293 -4.25971937263e-05 0)
(0.000990026178679 -3.87301112352e-05 0)
(0.00100776114382 -3.40565348309e-05 0)
(0.00102303208569 -2.86569445638e-05 0)
(0.00103552816661 -2.26482428243e-05 0)
(0.00104499890679 -1.61764228479e-05 0)
(0.00105126489663 -9.40593848676e-06 0)
(0.00105422350725 -2.50752721515e-06 0)
(0.00105384937533 4.35334687928e-06 0)
(0.00105019033562 1.102553857e-05 0)
(0.00104336009958 1.73777787185e-05 0)
(0.00103352914955 2.33009025778e-05 0)
(0.00102091508995 2.87075898048e-05 0)
(0.0010057732557 3.35307919994e-05 0)
(0.00098838790485 3.77219223431e-05 0)
(0.000969063964913 4.12494897873e-05 0)
(0.000948119129468 4.4098384885e-05 0)
(0.000925876110685 4.62696210042e-05 0)
(0.000902654989367 4.77801014586e-05 0)
(0.000878765791512 4.86619435574e-05 0)
(0.000854501584434 4.89610190912e-05 0)
(0.000830132471877 4.87345992321e-05 0)
(0.000805900852332 4.80482400163e-05 0)
(0.000782018197769 4.69722329162e-05 0)
(0.000758663447436 4.55780290196e-05 0)
(0.000735982940105 4.39350177005e-05 0)
(0.000714091668208 4.21079344876e-05 0)
(0.000693075551418 4.01550326096e-05 0)
(0.000672994398658 3.81270228404e-05 0)
(0.000653885245752 3.60666905471e-05 0)
(0.000635765804306 3.40090470038e-05 0)
(0.000618637819241 3.19818569109e-05 0)
(0.000602490195044 3.000639609e-05 0)
(0.000587301806215 2.80983187857e-05 0)
(0.000573043951917 2.62685449555e-05 0)
(0.000559682447677 2.45241066087e-05 0)
(0.000547179369328 2.28689169028e-05 0)
(0.000535494478013 2.13044439269e-05 0)
(0.000524586362107 1.98302844276e-05 0)
(0.000514413334294 1.84446408799e-05 0)
(0.00050493412124 1.71447104341e-05 0)
(0.000496108380671 1.59269964107e-05 0)
(0.000487897076989 1.47875538918e-05 0)
(0.000480262742473 1.37221804377e-05 0)
(0.000473169647046 1.27265621854e-05 0)
(0.000466583895725 1.17963842892e-05 0)
(0.000460473469348 1.09274135397e-05 0)
(0.000454808221071 1.01155597659e-05 0)
(0.000449559838405 9.35692166343e-06 0)
(0.000444701778207 8.64782181384e-06 0)
(0.000440209180009 7.98483500667e-06 0)
(0.000436058761342 7.36481350404e-06 0)
(0.000432228697167 6.78491254808e-06 0)
(0.000428698484254 6.24261932241e-06 0)
(0.000425448790197 5.73578851209e-06 0)
(0.000422461285869 5.26268783433e-06 0)
(0.000419718459463 4.82205701727e-06 0)
(0.00041720341009 4.41318404946e-06 0)
(0.000414899619391 4.03600241721e-06 0)
(0.00041279070141 3.69121272908e-06 0)
(0.000410860134844 3.38043024418e-06 0)
(0.000409090989295 3.10635564389e-06 0)
(0.000407465670682 2.87295616961e-06 0)
(0.00040596573442 2.68562249098e-06 0)
(0.000404571853822 2.55121872756e-06 0)
(0.000403264092584 2.47783878942e-06 0)
(0.00040202271695 2.47384790074e-06 0)
(0.000400829871799 2.54524892261e-06 0)
(0.000399672341736 2.68912368727e-06 0)
(0.000398544426304 2.87810711759e-06 0)
(0.000397444392587 3.02812074395e-06 0)
(0.00121688571351 0.00018237559299 0)
(0.00124886101623 0.00035818186405 0)
(0.00126510253621 0.000407298977825 0)
(0.00125480646906 0.000394353658742 0)
(0.00122375902992 0.000357383019371 0)
(0.0011802814463 0.000314217804842 0)
(0.00113093416034 0.000272352557445 0)
(0.00108010183539 0.000234552677629 0)
(0.00103047970135 0.000201509302062 0)
(0.000983604630006 0.000173051805774 0)
(0.000940263506157 0.00014869345603 0)
(0.000900775746948 0.000127871482999 0)
(0.000865179831828 0.000110047173668 0)
(0.000833353194756 9.47422773902e-05 0)
(0.000805087771106 8.15471268695e-05 0)
(0.000780136706373 7.01169397568e-05 0)
(0.000758242587792 6.01638876949e-05 0)
(0.000739153973012 5.14483266334e-05 0)
(0.00072263458702 4.37706034625e-05 0)
(0.000708467983296 3.69639330535e-05 0)
(0.000696459445502 3.088842623e-05 0)
(0.000686436251213 2.54261781402e-05 0)
(0.000678247000781 2.04772689852e-05 0)
(0.000671760447958 1.59565227791e-05 0)
(0.000666864099627 1.17908843572e-05 0)
(0.000663462744628 7.917296314e-06 0)
(0.000661477003714 4.28097930436e-06 0)
(0.000660841949579 8.34038979604e-07 0)
(0.000661505818624 -2.46566067486e-06 0)
(0.000663428817064 -5.65539640926e-06 0)
(0.000666582016232 -8.76830708073e-06 0)
(0.000670946324414 -1.1833955651e-05 0)
(0.000676511513073 -1.48787441449e-05 0)
(0.000683275272924 -1.7926194063e-05 0)
(0.000691242271828 -2.0997096616e-05 0)
(0.000700423182454 -2.41095313692e-05 0)
(0.00071083364346 -2.72787470579e-05 0)
(0.000722493113556 -3.05168939148e-05 0)
(0.000735423573119 -3.38325935955e-05 0)
(0.000749648023407 -3.72303305829e-05 0)
(0.000765188729221 -4.0709649173e-05 0)
(0.00078206514791 -4.42641433255e-05 0)
(0.000800291487078 -4.78802350601e-05 0)
(0.000819873836859 -5.15357520638e-05 0)
(0.00084080683241 -5.51983398409e-05 0)
(0.000863069821346 -5.88237797577e-05 0)
(0.000886622542614 -6.23543341669e-05 0)
(0.000911400371715 -6.57173025813e-05 0)
(0.000937309255683 -6.88240457598e-05 0)
(0.000964220551805 -7.15698076376e-05 0)
(0.000991966095051 -7.38347227264e-05 0)
(0.00102033394304 -7.54864142299e-05 0)
(0.0010490653679 -7.63845381562e-05 0)
(0.00107785375633 -7.63874847177e-05 0)
(0.0011063461093 -7.53611995742e-05 0)
(0.00113414776851 -7.31897458562e-05 0)
(0.00116083081362 -6.97868344107e-05 0)
(0.00118594626557 -6.51071618808e-05 0)
(0.00120903980975 -5.91560793851e-05 0)
(0.00122967024633 -5.19959395818e-05 0)
(0.00124742933094 -4.37475413055e-05 0)
(0.00126196117734 -3.4585553709e-05 0)
(0.00127297911107 -2.47277728608e-05 0)
(0.00128027798701 -1.44194490161e-05 0)
(0.0012837406346 -3.91527813609e-06 0)
(0.00128333816549 6.53768696745e-06 0)
(0.00127912500875 1.67133748179e-05 0)
(0.00127123030156 2.6414858188e-05 0)
(0.00125984742469 3.54776162547e-05 0)
(0.00124522313132 4.37691903686e-05 0)
(0.00122764713513 5.11869794672e-05 0)
(0.00120744244117 5.76557347617e-05 0)
(0.00118495629058 6.31257215127e-05 0)
(0.00116055141557 6.75718166871e-05 0)
(0.00113459734623 7.09932306364e-05 0)
(0.00110746170124 7.3413212302e-05 0)
(0.00107950163497 7.48780523685e-05 0)
(0.0010510558152 7.54548943819e-05 0)
(0.00102243740652 7.52282043472e-05 0)
(0.000993928507662 7.42951144905e-05 0)
(0.000965776351925 7.27601319174e-05 0)
(0.000938191377687 7.07298196417e-05 0)
(0.000911347068776 6.83080100789e-05 0)
(0.000885381302136 6.55919488991e-05 0)
(0.000860398846583 6.26695600547e-05 0)
(0.000836474631791 5.96178334871e-05 0)
(0.000813657435073 5.65022008657e-05 0)
(0.000791973693425 5.33766917194e-05 0)
(0.000771431220231 5.02846428175e-05 0)
(0.000752022676025 4.72597512344e-05 0)
(0.000733728702918 4.4327298408e-05 0)
(0.000716520679641 4.15054158559e-05 0)
(0.000700363088645 3.88063039831e-05 0)
(0.000685215509861 3.6237349794e-05 0)
(0.000671034270007 3.38021154673e-05 0)
(0.000657773783747 3.15011885003e-05 0)
(0.000645387625788 2.93328962877e-05 0)
(0.000633829372516 2.72938954093e-05 0)
(0.000623053249431 2.53796495919e-05 0)
(0.000613014617126 2.35848117432e-05 0)
(0.000603670324671 2.19035252446e-05 0)
(0.000594978955185 2.03296587122e-05 0)
(0.000586900984567 1.88569869437e-05 0)
(0.000579398870763 1.7479329208e-05 0)
(0.000572437087782 1.61906544659e-05 0)
(0.000565982115816 1.49851617292e-05 0)
(0.000560002396409 1.38573425582e-05 0)
(0.000554468259454 1.28020317238e-05 0)
(0.000549351827034 1.18144513115e-05 0)
(0.000544626897543 1.08902529837e-05 0)
(0.000540268812295 1.0025562769e-05 0)
(0.000536254305772 9.2170324997e-06 0)
(0.000532561340011 8.46190190736e-06 0)
(0.000529168923238 7.75807518298e-06 0)
(0.000526056913119 7.10421548944e-06 0)
(0.000523205805945 6.49985997381e-06 0)
(0.000520596515271 5.94555590712e-06 0)
(0.0005182101475 5.44301438089e-06 0)
(0.000516027788553 4.99526981935e-06 0)
(0.000514030326331 4.60681742159e-06 0)
(0.000512198349505 4.2836696466e-06 0)
(0.000510512185279 4.03321240548e-06 0)
(0.00050895216521 3.86362309894e-06 0)
(0.000507499225518 3.78237625413e-06 0)
(0.000506135899685 3.79288955586e-06 0)
(0.000504847440884 3.88747062622e-06 0)
(0.000503621570516 4.03354533575e-06 0)
(0.000502442537877 4.15174868973e-06 0)
(0.00121278009746 0.000152709776034 0)
(0.00124142309732 0.000327229359319 0)
(0.00126506942406 0.000398363609862 0)
(0.00127080945665 0.000407845035432 0)
(0.00125891693028 0.000386831581933 0)
(0.00123404446341 0.000353119266244 0)
(0.00120103802278 0.000315804796238 0)
(0.00116373754071 0.000279233219832 0)
(0.00112488398323 0.00024530442587 0)
(0.00108632175516 0.000214693956478 0)
(0.00104923238825 0.000187481771853 0)
(0.00101432985431 0.000163473436862 0)
(0.000982007904563 0.000142363062052 0)
(0.000952446287777 0.000123814621164 0)
(0.0009256854668 0.000107501007015 0)
(0.000901678342625 9.3121228875e-05 0)
(0.000880325610782 8.04064304778e-05 0)
(0.000861499637332 6.91203547389e-05 0)
(0.000845060362298 5.90572202656e-05 0)
(0.000830865708973 5.00385584459e-05 0)
(0.000818778232825 4.19098012164e-05 0)
(0.000808669214693 3.45370033189e-05 0)
(0.000800421031034 2.78038669565e-05 0)
(0.000793928374377 2.1609124655e-05 0)
(0.000789098716625 1.58642802261e-05 0)
(0.000785852282539 1.04916824585e-05 0)
(0.000784121713848 5.42289692008e-06 0)
(0.000783851543968 5.97340715792e-07 0)
(0.000784997560511 -4.03885153958e-06 0)
(0.000787526101884 -8.53374783911e-06 0)
(0.000791413318506 -1.29303729326e-05 0)
(0.000796644411076 -1.72672911236e-05 0)
(0.000803212842368 -2.15790283468e-05 0)
(0.000811119513995 -2.58963402775e-05 0)
(0.000820371891689 -3.02463252074e-05 0)
(0.000830983055806 -3.46523750412e-05 0)
(0.000842970647585 -3.91339530279e-05 0)
(0.000856355675685 -4.37061823319e-05 0)
(0.000871161141777 -4.83792263359e-05 0)
(0.000887410438506 -5.31574396234e-05 0)
(0.000905125468276 -5.80382696582e-05 0)
(0.000924324427753 -6.30108940187e-05 0)
(0.000945019201726 -6.80545894608e-05 0)
(0.000967212312444 -7.31368489029e-05 0)
(0.000990893379046 -7.82112945193e-05 0)
(0.00101603505903 -8.32154818211e-05 0)
(0.00104258847368 -8.80687541272e-05 0)
(0.00107047816628 -9.26703885549e-05 0)
(0.00109959671062 -9.68983703238e-05 0)
(0.00112979918094 -0.00010060922962 0)
(0.0011608978135 -0.000103639454451 0)
(0.00119265732863 -0.000105809021289 0)
(0.00122479152406 -0.000106927524832 0)
(0.00125696186762 -0.000106803201365 0)
(0.00128877887199 -0.000105254809676 0)
(0.00131980698382 -0.000102125874654 0)
(0.001349573535 -9.73002687864e-05 0)
(0.00137758197502 -9.07175861544e-05 0)
(0.00140332914347 -8.23863352695e-05 0)
(0.00142632577475 -7.23927212593e-05 0)
(0.0014461187879 -6.09028307563e-05 0)
(0.00146231328578 -4.81565871814e-05 0)
(0.00147459175903 -3.44531318369e-05 0)
(0.00148272804795 -2.01292484119e-05 0)
(0.00148659438104 -5.53446177619e-06 0)
(0.00148616117793 8.99253149008e-06 0)
(0.0014814907734 2.31420716723e-05 0)
(0.00147272716637 3.6644448094e-05 0)
(0.0014600840192 4.9274016667e-05 0)
(0.00144383260591 6.08484580297e-05 0)
(0.00142429061682 7.12256550128e-05 0)
(0.00140181199469 8.03003309663e-05 0)
(0.00137677749707 8.80017279639e-05 0)
(0.00134958551214 9.42926243233e-05 0)
(0.00132064275943 9.91691996711e-05 0)
(0.00129035477826 0.000102660825151 0)
(0.00125911642371 0.000104828817646 0)
(0.0012273028468 0.000105763485039 0)
(0.00119526155691 0.00010557927363 0)
(0.00116330612314 0.000104408341421 0)
(0.00113171188914 0.000102393260456 0)
(0.00110071382009 9.96797021491e-05 0)
(0.0010705063474 9.64098787583e-05 0)
(0.00104124488828 9.27172771584e-05 0)
(0.00101304861804 8.87229301206e-05 0)
(0.00098600405799 8.45332118739e-05 0)
(0.000960169086919 8.02389647341e-05 0)
(0.000935577060191 7.59156713217e-05 0)
(0.000912240805835 7.1624366301e-05 0)
(0.000890156344915 6.74130086994e-05 0)
(0.000869306248172 6.33180867915e-05 0)
(0.000849662589637 5.93662853792e-05 0)
(0.000831189492344 5.55760989084e-05 0)
(0.000813845283645 5.19593185699e-05 0)