/*--------------------------------*- C++ -*----------------------------------*\
  =========                 |
  \\      /  F ield         | OpenFOAM: The Open Source CFD Toolbox
   \\    /   O peration     | Website:  https://openfoam.org
    \\  /    A nd           | Version:  7
     \\/     M anipulation  |
\*---------------------------------------------------------------------------*/
FoamFile
{
    version     2.0;
    format      ascii;
    class       volScalarField;
    location    "8.549928e+08";
    object      Ae;
}
// * * * * * * * * * * * * * * * * * * * * * * * * * * * * * * * * * * * * * //

dimensions      [0 -1 0 0 0 0 0];

internalField   nonuniform List<scalar> 
80
(
0
0
0
0
0
0.001248
0.00841658
0.0217652
0.0408234
0.0628394
0.0808983
0.0913356
0.0963183
0.0984989
0.099405
0.0997681
0.0999102
0.0999651
0.0999862
0.0999942
0.0999973
0.0999985
0.099999
0.0999993
0.0999994
0.0999994
0.0999994
0.0999994
0.0999994
0.0999994
0.0999994
0.0999994
0.0999994
0.0999994
0.0999994
0.0999994
0.0999994
0.0999995
0.0999995
0.0999995
0.0999995
0.0999995
0.0999995
0.0999995
0.0999995
0.0999995
0.0999995
0.0999995
0.0999995
0.0999995
0.0999995
0.0999995
0.0999995
0.0999995
0.0999995
0.0999995
0.0999995
0.0999995
0.0999996
0.0999996
0.0999996
0.0999996
0.0999996
0.0999996
0.0999996
0.0999996
0.0999996
0.0999996
0.0999996
0.0999996
0.0999996
0.0999996
0.0999996
0.0999996
0.0999996
0.0999996
0.0999996
0.0999996
0.0999996
0.0999996
)
;

boundaryField
{
    outlet
    {
        type            zeroGradient;
    }
    inlet
    {
        type            zeroGradient;
    }
    frontAndBack
    {
        type            empty;
    }
}


// ************************************************************************* //
