/*--------------------------------*- C++ -*----------------------------------*\
  =========                 |
  \\      /  F ield         | OpenFOAM: The Open Source CFD Toolbox
   \\    /   O peration     | Website:  https://openfoam.org
    \\  /    A nd           | Version:  7
     \\/     M anipulation  |
\*---------------------------------------------------------------------------*/
FoamFile
{
    version     2.0;
    format      ascii;
    class       volScalarField;
    location    "600";
    object      Ci;
}
// * * * * * * * * * * * * * * * * * * * * * * * * * * * * * * * * * * * * * //

dimensions      [0 -3 0 0 1 0 0];

internalField   nonuniform List<scalar> 
8192
(
9.99999999655
10.0000000115
10.0000000232
10.0000000401
10.0000000759
10.0000001257
10.0000001678
10.0000002012
10.0000002271
10.0000002474
10.0000002643
10.0000002793
10.0000002934
10.0000003074
10.0000003213
10.0000003348
10.0000003473
10.0000003579
10.0000003656
10.0000003691
10.0000003673
10.000000359
10.000000343
10.0000003185
10.000000285
10.0000002421
10.0000001903
10.0000001299
10.0000000621
9.99999998829
9.9999999102
9.99999982953
9.99999974844
9.9999996686
9.999999592
9.9999995199
9.99999945376
9.99999939407
9.99999934157
9.99999929583
9.99999925681
9.99999922316
9.99999919413
9.99999916759
9.99999914227
9.99999911555
9.99999908598
9.99999905088
9.99999900918
9.99999895867
9.99999889934
9.99999883012
9.99999875268
9.99999866759
9.99999857852
9.99999848757
9.99999839975
9.99999831741
9.99999824619
9.99999818456
9.99999813231
9.9999980857
9.99999804418
9.99999800478
9.99999796948
9.99999793909
9.99999791955
9.9999979145
9.99999793052
9.99999796625
9.9999980095
9.99999805882
9.99999811483
9.99999817559
9.99999824231
9.99999831447
9.99999839451
9.99999848312
9.99999858326
9.9999986959
9.99999882346
9.99999896618
9.99999912518
9.9999992994
9.99999948847
9.99999969016
9.99999990295
10.0000001239
10.000000351
10.0000005811
10.0000008124
10.000001042
10.0000012685
10.0000014895
10.0000017042
10.0000019108
10.0000021085
10.0000022956
10.0000024717
10.000002637
10.0000027926
10.0000029391
10.0000030776
10.000003209
10.0000033344
10.0000034548
10.0000035712
10.0000036847
10.0000037964
10.0000039072
10.0000040183
10.0000041304
10.0000042447
10.0000043617
10.0000044824
10.0000046072
10.0000047366
10.0000048707
10.0000050092
10.0000051516
10.0000052964
10.0000054415
10.000005584
10.0000057205
10.000005848
10.0000059642
10.0000060663
10.0000061358
10.0000000101
10.0000000123
10.0000000144
10.0000000214
10.0000000332
10.0000000503
10.0000000701
10.0000000912
10.0000001132
10.000000136
10.0000001596
10.0000001843
10.0000002101
10.0000002369
10.0000002644
10.000000292
10.0000003191
10.0000003445
10.0000003671
10.0000003855
10.0000003986
10.000000405
10.0000004036
10.0000003937
10.0000003748
10.0000003468
10.0000003104
10.0000002664
10.0000002164
10.0000001621
10.0000001057
10.0000000495
9.99999999567
9.99999994641
9.99999990347
9.99999986842
9.99999984213
9.99999982514
9.99999981727
9.99999981781
9.99999982563
9.9999998388
9.99999985538
9.99999987255
9.99999988787
9.9999998981
9.99999990077
9.99999989277
9.99999987219
9.99999983665
9.99999978533
9.99999971699
9.99999963222
9.99999953105
9.99999941541
9.99999928632
9.9999991464
9.99999899691
9.99999884057
9.99999867769
9.99999850953
9.99999833576
9.99999815819
9.99999797816
9.99999779994
9.99999762753
9.99999746724
9.99999732398
9.99999720344
9.99999710913
9.99999704196
9.99999700135
9.99999698792
9.99999700104
9.99999704123
9.99999710772
9.99999720066
9.99999731889
9.99999746198
9.99999762822
9.99999781654
9.99999802459
9.99999825062
9.99999849178
9.9999987458
9.99999900954
9.99999928054
9.99999955565
9.99999983253
10.0000001084
10.0000003813
10.0000006488
10.0000009097
10.0000011622
10.0000014053
10.000001638
10.0000018597
10.0000020674
10.0000022614
10.0000024432
10.000002614
10.0000027749
10.000002927
10.0000030712
10.0000032087
10.0000033406
10.0000034679
10.0000035917
10.0000037132
10.0000038333
10.0000039533
10.000004074
10.0000041963
10.0000043211
10.0000044492
10.000004581
10.000004717
10.0000048573
10.0000050018
10.0000051497
10.0000052999
10.0000054503
10.0000055982
10.0000057403
10.0000058747
10.0000060005
10.0000061225
10.0000062079
10.0000000141
10.0000000141
10.0000000137
10.0000000178
10.000000027
10.0000000394
10.0000000546
10.0000000727
10.0000000935
10.000000117
10.0000001431
10.0000001713
10.0000002015
10.0000002331
10.0000002657
10.0000002989
10.0000003321
10.0000003647
10.0000003962
10.0000004261
10.000000454
10.0000004793
10.000000502
10.0000005219
10.0000005391
10.000000554
10.0000005672
10.0000005795
10.0000005917
10.0000006054
10.0000006212
10.0000006411
10.0000006651
10.0000006954
10.0000007313
10.0000007746
10.0000008236
10.0000008795
10.00000094
10.0000010051
10.0000010723
10.00000114
10.000001206
10.0000012678
10.0000013229
10.0000013685
10.0000014024
10.0000014215
10.000001424
10.0000014072
10.0000013699
10.0000013096
10.0000012261
10.0000011174
10.0000009841
10.0000008252
10.0000006421
10.0000004343
10.0000002042
9.9999999519
9.99999968041
9.99999939074
9.99999908707
9.99999877222
9.99999845241
9.99999813256
9.99999782043
9.99999752182
9.99999724427
9.99999699295
9.99999677386
9.99999659037
9.99999644676
9.99999634503
9.99999628779
9.99999627526
9.99999630794
9.99999638409
9.99999650216
9.99999665875
9.99999685074
9.99999707363
9.99999732341
9.99999759516
9.99999788466
9.99999818713
9.99999849866
9.999998815
9.99999913286
9.99999944881
9.99999976035
10.0000000649
10.0000003608
10.0000006464
10.0000009208
10.0000011829
10.0000014326
10.0000016691
10.0000018929
10.0000021043
10.0000023042
10.0000024936
10.0000026734
10.0000028447
10.0000030086
10.0000031663
10.0000033189
10.0000034675
10.0000036134
10.0000037575
10.0000039011
10.0000040448
10.0000041898
10.0000043367
10.0000044861
10.0000046385
10.0000047943
10.0000049534
10.0000051157
10.0000052804
10.0000054466
10.0000056123
10.0000057749
10.000005931
10.0000060798
10.0000062173
10.0000063663
10.0000064185
10.0000000142
10.0000000171
10.0000000164
10.0000000215
10.0000000327
10.0000000488
10.0000000683
10.0000000917
10.0000001198
10.0000001528
10.0000001906
10.0000002328
10.0000002788
10.0000003279
10.0000003794
10.0000004325
10.0000004866
10.0000005412
10.0000005958
10.00000065
10.0000007036
10.0000007567
10.0000008091
10.0000008615
10.0000009137
10.000000967
10.0000010211
10.0000010782
10.0000011371
10.0000012016
10.0000012688
10.0000013445
10.0000014231
10.0000015127
10.0000016048
10.0000017092
10.0000018153
10.0000019327
10.0000020507
10.0000021765
10.0000023014
10.0000024289
10.0000025526
10.0000026725
10.0000027844
10.000002886
10.0000029738
10.0000030448
10.0000030958
10.0000031236
10.0000031254
10.0000030985
10.0000030408
10.0000029505
10.0000028267
10.0000026687
10.0000024772
10.0000022528
10.0000019975
10.000001713
10.0000014023
10.0000010681
10.0000007145
10.0000003454
9.99999996607
9.99999958177
9.99999919875
9.99999882282
9.99999846025
9.99999811653
9.99999779734
9.99999750754
9.99999725222
9.99999703556
9.99999686168
9.99999673341
9.99999665309
9.99999662153
9.99999663892
9.99999670384
9.99999681424
9.99999696666
9.99999715721
9.99999738104
9.9999976332
9.99999790824
9.99999820099
9.99999850618
9.99999881911
9.99999913528
9.99999945091
9.99999976257
10.0000000676
10.0000003638
10.0000006495
10.0000009236
10.0000011854
10.0000014347
10.0000016716
10.0000018968
10.0000021111
10.0000023156
10.0000025116
10.0000027003
10.0000028831
10.0000030612
10.0000032358
10.0000034082
10.0000035795
10.0000037506
10.0000039225
10.0000040958
10.0000042712
10.000004449
10.0000046296
10.0000048128
10.0000049986
10.0000051867
10.0000053763
10.0000055665
10.000005756
10.000005943
10.0000061252
10.0000062984
10.0000064653
10.0000066081
10.0000067993
10.0000067424
10.0000000158
10.0000000222
10.0000000233
10.000000029
10.0000000417
10.0000000607
10.0000000854
10.0000001143
10.0000001483
10.0000001882
10.0000002341
10.0000002855
10.0000003418
10.0000004023
10.000000466
10.0000005321
10.0000005999
10.0000006689
10.0000007383
10.0000008081
10.0000008779
10.0000009483
10.0000010187
10.0000010909
10.0000011638
10.0000012408
10.0000013189
10.0000014052
10.0000014922
10.0000015931
10.0000016925
10.0000018132
10.0000019281
10.0000020719
10.0000022042
10.000002371
10.0000025215
10.0000027065
10.0000028733
10.0000030675
10.0000032448
10.0000034364
10.000003613
10.0000037892
10.0000039492
10.000004096
10.0000042221
10.0000043252
10.0000044013
10.0000044474
10.0000044613
10.0000044407
10.0000043851
10.000004294
10.0000041683
10.000004009
10.0000038185
10.0000035992
10.0000033543
10.0000030866
10.0000028
10.0000024973
10.0000021825
10.0000018587
10.0000015299
10.0000011994
10.0000008712
10.0000005485
10.0000002349
9.99999993316
9.99999964625
9.99999937666
9.99999912727
9.99999890063
9.99999869966
9.99999852686
9.99999838487
9.99999827576
9.99999820151
9.99999816325
9.99999816166
9.99999819643
9.99999826658
9.99999837016
9.9999985046
9.99999866661
9.99999885249
9.99999905818
9.99999927956
9.9999995125
9.99999975315
9.9999999979
10.0000002437
10.0000004877
10.000000728
10.0000009628
10.0000011911
10.0000014122
10.0000016259
10.0000018325
10.0000020326
10.000002227
10.0000024168
10.0000026033
10.0000027876
10.0000029711
10.0000031548
10.0000033398
10.000003527
10.000003717
10.0000039103
10.0000041074
10.0000043081
10.0000045124
10.0000047198
10.0000049297
10.0000051413
10.0000053534
10.0000055648
10.0000057739
10.0000059789
10.0000061778
10.0000063682
10.0000065448
10.000006716
10.0000068426
10.0000070588
10.0000069224
10.0000000159
10.0000000265
10.0000000289
10.0000000359
10.0000000506
10.0000000726
10.0000001013
10.0000001361
10.0000001754
10.0000002199
10.0000002702
10.0000003259
10.0000003863
10.0000004507
10.0000005181
10.0000005878
10.0000006591
10.0000007316
10.0000008047
10.0000008789
10.0000009532
10.0000010298
10.0000011067
10.0000011889
10.000001271
10.0000013642
10.000001455
10.0000015668
10.0000016694
10.0000018085
10.0000019244
10.0000020995
10.0000022283
10.0000024444
10.0000025848
10.0000028392
10.0000029912
10.0000032699
10.0000034349
10.0000037146
10.0000038913
10.0000041466
10.0000043248
10.0000045361
10.0000046959
10.0000048517
10.0000049699
10.0000050632
10.0000051223
10.0000051486
10.0000051408
10.0000050993
10.0000050253
10.0000049205
10.0000047876
10.0000046293
10.0000044491
10.0000042504
10.0000040369
10.0000038123
10.0000035801
10.0000033437
10.0000031064
10.0000028713
10.0000026413
10.000002419
10.0000022065
10.0000020056
10.0000018175
10.0000016427
10.0000014812
10.0000013327
10.0000011965
10.0000010719
10.0000009583
10.0000008551
10.0000007625
10.0000006806
10.0000006102
10.0000005522
10.0000005078
10.0000004781
10.0000004642
10.0000004665
10.0000004855
10.0000005209
10.0000005723
10.0000006385
10.0000007181
10.0000008095
10.0000009108
10.0000010201
10.0000011359
10.0000012563
10.0000013803
10.0000015067
10.0000016349
10.0000017645
10.0000018953
10.0000020277
10.0000021621
10.0000022992
10.0000024398
10.0000025848
10.0000027351
10.0000028916
10.0000030548
10.0000032254
10.0000034037
10.0000035896
10.0000037831
10.0000039835
10.0000041902
10.0000044021
10.0000046178
10.0000048358
10.0000050543
10.0000052716
10.000005485
10.0000056931
10.0000058922
10.0000060814
10.0000062564
10.0000064136
10.0000065607
10.0000066541
10.0000068363
10.0000066868
10.000000017
10.0000000312
10.0000000358
10.0000000434
10.0000000588
10.0000000826
10.0000001146
10.0000001537
10.0000001985
10.0000002473
10.0000003006
10.0000003584
10.00000042
10.0000004847
10.0000005517
10.0000006204
10.00000069
10.0000007609
10.000000832
10.0000009054
10.0000009785
10.0000010572
10.0000011345
10.0000012245
10.0000013091
10.0000014198
10.0000015133
10.000001658
10.0000017582
10.0000019538
10.0000020521
10.0000023173
10.0000023988
10.000002748
10.0000027979
10.0000032301
10.0000032443
10.0000037308
10.0000037258
10.0000042087
10.000004216
10.0000046276
10.0000046703
10.0000049662
10.0000050364
10.0000052121
10.0000052758
10.0000053529
10.0000053764
10.0000053779
10.0000053463
10.0000052874
10.0000052029
10.0000050954
10.0000049682
10.0000048243
10.000004667
10.0000044996
10.0000043254
10.0000041477
10.00000397
10.0000037956
10.000003628
10.0000034706
10.0000033268
10.000003199
10.0000030898
10.0000030005
10.0000029321
10.0000028848
10.0000028576
10.0000028485
10.0000028546
10.0000028728
10.0000028986
10.0000029301
10.0000029638
10.0000029962
10.0000030241
10.0000030448
10.0000030565
10.0000030582
10.0000030493
10.000003033
10.0000030104
10.0000029826
10.0000029509
10.0000029164
10.0000028802
10.0000028434
10.0000028072
10.0000027723
10.0000027396
10.0000027101
10.0000026847
10.0000026641
10.0000026495
10.0000026419
10.0000026423
10.000002652
10.0000026719
10.0000027033
10.0000027472
10.0000028045
10.000002876
10.0000029621
10.0000030632
10.0000031791
10.0000033096
10.0000034538
10.0000036106
10.0000037788
10.0000039563
10.0000041413
10.0000043312
10.0000045237
10.0000047157
10.000004905
10.0000050873
10.0000052619
10.000005422
10.000005571
10.0000056962
10.0000058077
10.0000058896
10.0000059426
10.0000060144
10.0000059128
10.0000000165
10.0000000341
10.0000000406
10.0000000495
10.0000000659
10.0000000911
10.0000001256
10.0000001682
10.0000002175
10.000000271
10.0000003274
10.0000003872
10.0000004495
10.000000514
10.0000005796
10.0000006465
10.0000007134
10.0000007822
10.0000008501
10.0000009227
10.0000009931
10.0000010751
10.0000011502
10.0000012518
10.0000013322
10.0000014695
10.0000015501
10.0000017477
10.0000018106
10.0000021053
10.0000021134
10.0000025548
10.0000024508
10.0000030936
10.000002814
10.0000036922
10.0000032028
10.0000042873
10.0000036298
10.0000047949
10.0000041025
10.00000515
10.0000045908
10.0000053474
10.000005017
10.0000054355
10.0000052995
10.0000054588
10.0000054097
10.0000054231
10.0000053743
10.0000053171
10.0000052375
10.0000051423
10.0000050342
10.0000049154
10.000004788
10.000004655
10.0000045191
10.0000043829
10.0000042497
10.0000041229
10.0000040064
10.000003904
10.0000038198
10.0000037567
10.0000037182
10.000003706
10.0000037228
10.0000037683
10.0000038435
10.0000039442
10.0000040703
10.0000042183
10.0000043825
10.0000045566
10.0000047339
10.0000049074
10.0000050704
10.0000052167
10.0000053405
10.0000054375
10.0000055043
10.0000055395
10.0000055428
10.0000055162
10.0000054602
10.0000053808
10.0000052821
10.0000051662
10.0000050357
10.0000048933
10.000004742
10.0000045847
10.0000044247
10.0000042652
10.0000041091
10.0000039595
10.0000038193
10.0000036911
10.0000035775
10.0000034804
10.0000034018
10.0000033431
10.0000033053
10.0000032891
10.0000032945
10.0000033213
10.0000033684
10.0000034347
10.0000035181
10.0000036166
10.0000037274
10.0000038478
10.0000039741
10.0000041036
10.0000042316
10.0000043565
10.0000044712
10.0000045783
10.0000046644
10.000004743
10.0000047838
10.0000048278
10.0000048047
10.000004815
10.0000047178
10.0000046912
10.0000000174
10.0000000369
10.0000000455
10.0000000549
10.0000000715
10.0000000975
10.0000001335
10.0000001789
10.0000002314
10.0000002893
10.000000349
10.0000004111
10.0000004746
10.0000005393
10.000000604
10.0000006698
10.0000007343
10.0000008019
10.0000008667
10.0000009403
10.0000010071
10.0000010956
10.0000011651
10.0000012842
10.0000013516
10.0000015281
10.0000015736
10.0000018531
10.0000018273
10.0000022879
10.000002093
10.0000028591
10.0000023359
10.00000358
10.000002522
10.0000044241
10.0000026532
10.0000052926
10.0000028019
10.0000060064
10.0000030984
10.0000063764
10.0000036318
10.0000063428
10.0000043252
10.0000060527
10.000004944
10.0000057391
10.0000052987
10.0000055245
10.0000053855
10.0000053812
10.0000053097
10.0000052429
10.0000051638
10.000005079
10.000004989
10.000004897
10.0000048027
10.000004708
10.0000046164
10.0000045314
10.0000044558
10.0000043902
10.0000043383
10.0000043038
10.0000042961
10.0000043195
10.0000043823
10.0000044834
10.0000046253
10.0000048074
10.000005026
10.0000052754
10.0000055486
10.0000058379
10.0000061348
10.0000064305
10.000006716
10.0000069824
10.0000072211
10.0000074245
10.0000075863
10.0000077021
10.0000077691
10.0000077869
10.0000077563
10.0000076801
10.0000075632
10.0000074094
10.0000072261
10.0000070183
10.0000067897
10.0000065446
10.0000062873
10.0000060224
10.0000057546
10.0000054885
10.0000052284
10.0000049786
10.0000047428
10.0000045243
10.000004326
10.0000041499
10.0000039977
10.0000038703
10.000003768
10.0000036904
10.0000036363
10.0000036042
10.0000035918
10.0000035965
10.0000036149
10.000003644
10.0000036793
10.0000037183
10.0000037546
10.0000037884
10.0000038089
10.0000038243
10.0000038115
10.0000038003
10.0000037337
10.0000036982
10.0000035473
10.0000035129
10.0000032279
10.0000032668
10.0000000173
10.0000000383
10.0000000489
10.0000000594
10.0000000763
10.0000001025
10.0000001393
10.0000001865
10.0000002416
10.0000003028
10.000000366
10.0000004308
10.000000496
10.0000005618
10.0000006263
10.000000692
10.0000007547
10.0000008224
10.0000008845
10.0000009605
10.0000010235
10.0000011202
10.0000011825
10.000001322
10.000001371
10.000001593
10.0000015893
10.0000019681
10.0000018174
10.0000024939
10.0000020025
10.0000032324
10.0000020543
10.0000042541
10.0000018641
10.0000055998
10.000001375
10.0000071907
10.0000007009
10.0000087218
10.0000002148
10.0000096747
10.0000004202
10.0000095917
10.0000015314
10.000008529
10.0000031461
10.0000071475
10.0000045201
10.0000061317
10.0000052495
10.0000056434
10.0000054547
10.0000054708
10.0000054206
10.000005381
10.0000053363
10.0000052889
10.0000052349
10.0000051841
10.0000051446
10.0000051088
10.000005045
10.0000049283
10.0000047638
10.0000045973
10.000004484
10.0000044683
10.0000045617
10.0000047541
10.0000050263
10.0000053554
10.0000057219
10.0000061115
10.0000065148
10.0000069249
10.0000073353
10.0000077388
10.0000081276
10.0000084925
10.0000088242
10.0000091134
10.0000093522
10.0000095347
10.0000096569
10.0000097175
10.0000097169
10.0000096574
10.0000095431
10.0000093785
10.00000917
10.0000089238
10.0000086472
10.0000083458
10.0000080245
10.0000076887
10.0000073439
10.0000069954
10.0000066486
10.0000063084
10.0000059795
10.0000056657
10.0000053704
10.0000050964
10.0000048455
10.0000046191
10.0000044175
10.0000042406
10.0000040874
10.0000039561
10.0000038445
10.0000037499
10.0000036686
10.000003598
10.0000035327
10.0000034712
10.0000034055
10.0000033385
10.0000032553
10.0000031712
10.0000030519
10.0000029463
10.0000027675
10.0000026514
10.0000023735
10.0000022918
10.000001838
10.0000019113
10.000000018
10.0000000398
10.0000000515
10.0000000623
10.0000000792
10.0000001053
10.0000001423
10.0000001906
10.0000002477
10.0000003115
10.0000003778
10.0000004456
10.0000005129
10.0000005805
10.0000006456
10.000000712
10.0000007739
10.0000008422
10.0000009027
10.0000009807
10.0000010417
10.0000011442
10.0000012032
10.0000013557
10.000001396
10.0000016459
10.0000016154
10.0000020571
10.0000018256
10.0000026554
10.0000019362
10.000003553
10.0000017742
10.0000049298
10.0000010765
10.0000070181
9.99999956027
10.0000099716
9.99999715483
10.0000135686
9.99999437648
10.0000168561
9.999992507
10.0000182682
9.99999303214
10.0000167197
9.99999624124
10.000012945
10.0000005054
10.0000091417
10.0000037518
10.0000068322
10.0000053454
10.0000059698
10.0000057957
10.0000058641
10.0000058705
10.0000058625
10.0000058533
10.0000059347
10.0000060361
10.0000058749
10.0000050983
10.0000035812
10.0000016086
9.99999975813
9.99999857217
9.99999831824
9.99999893136
10.0000001443
10.0000016349
10.0000031402
10.0000045039
10.0000056683
10.0000066412
10.0000074583
10.0000081591
10.0000087747
10.000009325
10.00000982
10.000010262
10.0000106482
10.0000109717
10.0000112241
10.0000113974
10.000011487
10.0000114927
10.0000114191
10.0000112748
10.0000110699
10.0000108161
10.0000105235
10.0000102014
10.0000098571
10.0000094966
10.000009122
10.0000087363
10.0000083433
10.0000079471
10.000007552
10.0000071624
10.0000067827
10.0000064169
10.0000060683
10.0000057397
10.0000054329
10.0000051489
10.0000048878
10.0000046487
10.0000044304
10.0000042304
10.0000040462
10.0000038741
10.0000037116
10.0000035529
10.0000033978
10.0000032367
10.0000030756
10.0000028952
10.0000027187
10.0000025007
10.0000023086
10.0000020282
10.0000018385
10.0000014513
10.0000013214
10.0000007369
10.0000008111
10.0000000181
10.0000000405
10.0000000533
10.000000065
10.0000000816
10.0000001071
10.0000001437
10.0000001922
10.0000002504
10.0000003163
10.000000385
10.0000004556
10.0000005255
10.0000005955
10.000000662
10.0000007295
10.0000007922
10.0000008605
10.0000009219
10.0000009992
10.0000010634
10.0000011634
10.0000012318
10.0000013764
10.0000014387
10.0000016669
10.0000016821
10.0000020738
10.000001926
10.0000026645
10.0000020654
10.0000035785
10.0000018652
10.0000051031
10.000000877
10.0000077588
9.99999839602
10.0000122789
9.99999365333
10.0000192177
9.99998647849
10.0000279466
9.99997848827
10.0000355944
9.99997361488
10.0000376827
9.99997589895
10.0000318811
9.99998501784
10.0000215562
9.99999548288
10.0000127586
10.000002604
10.0000079715
10.0000058599
10.0000066932
10.0000065052
10.0000065274
10.0000069813
10.0000077799
10.0000069032
10.0000013053
9.99998885432
9.99997049633
9.9999505855
9.9999347363
9.99992698848
9.99992832974
9.99993701334
9.9999499264
9.99996392709
9.99997672092
9.99998713434
9.99999493069
10.0000004382
10.0000041993
10.000006743
10.0000084808
10.0000096923
10.000010552
10.0000111711
10.0000116288
10.0000119886
10.0000122989
10.0000125884
10.0000128622
10.0000131055
10.0000132911
10.0000133898
10.000013379
10.000013248
10.0000129986
10.0000126433
10.0000122025
10.000011698
10.000011155
10.0000105899
10.0000100179
10.0000094519
10.0000089017
10.0000083743
10.0000078742
10.000007404
10.0000069647
10.0000065563
10.000006178
10.000005828
10.0000055041
10.0000052038
10.0000049239
10.0000046611
10.0000044121
10.0000041725
10.0000039401
10.0000037084
10.0000034785
10.0000032394
10.0000030004
10.0000027385
10.0000024841
10.0000021825
10.0000019167
10.0000015512
10.0000012973
10.0000008226
10.0000006451
9.99999996682
10.0000000178
10.0000000187
10.0000000409
10.0000000532
10.0000000654
10.000000082
10.000000107
10.0000001429
10.0000001912
10.0000002499
10.0000003172
10.0000003879
10.0000004612
10.000000534
10.0000006064
10.0000006756
10.0000007442
10.0000008093
10.0000008767
10.0000009421
10.000001015
10.0000010888
10.0000011768
10.0000012686
10.0000013827
10.0000015006
10.0000016529
10.0000017958
10.0000020075
10.000002143
10.0000024788
10.0000024777
10.0000031575
10.000002607
10.0000043084
10.0000020477
10.0000065985
9.99999976007
10.0000114213
9.99999389356
10.0000209301
9.99998212639
10.0000370011
9.99996369548
10.000058204
9.99994314807
10.0000763578
9.99993181792
10.0000790376
9.99993997709
10.0000620747
9.99996335547
10.0000377036
9.99998621856
10.0000192061
10.0000015242
10.0000093209
10.0000062481
10.0000086797
10.0000126325
10.0000087154
9.99997553928
9.99989361218
9.99975887945
9.99959297156
9.99943700885
9.99933164802
9.99929903965
9.99933747681
9.99942775321
9.99954402707
9.99966249005
9.99976670621
9.99984893859
9.99990845146
9.99994862562
9.99997433317
9.99999022724
9.99999996023
10.0000060293
10.0000099328
10.0000124406
10.0000138816
10.000014392
10.0000140865
10.0000131385
10.0000117833
10.0000102772
10.0000088478
10.0000076576
10.0000067918
10.0000062643
10.0000060374
10.0000060432
10.0000062049
10.0000064492
10.0000067163
10.0000069629
10.0000071584
10.0000072837
10.0000073346
10.0000073142
10.0000072306
10.0000070937
10.0000069143
10.0000067024
10.0000064669
10.0000062151
10.0000059526
10.0000056835
10.0000054104
10.0000051346
10.0000048568
10.0000045756
10.0000042918
10.0000040009
10.0000037064
10.0000033978
10.0000030879
10.0000027517
10.0000024257
10.0000020486
10.000001715
10.0000012749
10.0000009616
10.000000414
10.0000001885
9.99999944005
9.99999945366
10.0000000191
10.0000000413
10.000000054
10.0000000662
10.0000000824
10.0000001064
10.0000001413
10.0000001886
10.0000002472
10.0000003148
10.0000003873
10.0000004629
10.0000005388
10.0000006136
10.0000006862
10.000000756
10.0000008248
10.0000008911
10.000000962
10.0000010298
10.0000011147
10.0000011893
10.0000013063
10.0000013873
10.0000015634
10.0000016343
10.0000019136
10.0000019254
10.0000023834
10.0000022349
10.000002993
10.0000025288
10.000003721
10.0000028429
10.0000043648
10.0000035437
10.0000041585
10.0000059466
10.0000008825
10.0000133669
9.99998977664
10.0000318621
9.99996392875
10.0000677793
9.99991988299
10.000118528
9.99986955144
10.0001613464
9.99984478302
10.0001624711
9.99987004322
10.000118742
9.99992250912
10.0000698605
9.99996843678
10.0000258482
10.0000030394
10.0000305585
10.0000147739
9.99985903713
9.99942770222
9.99865170567
9.99758581451
9.99643626732
9.99548125561
9.99494243134
9.99490306034
9.99530464262
9.99600407033
9.99683658982
9.99765792843
9.99837055304
9.99892975102
9.9993332132
9.99960398704
9.99977462495
9.99987642971
9.99993444944
9.99996664699
9.99998500188
9.99999696547
10.0000066693
10.0000158897
10.0000248869
10.0000331442
10.0000399478
10.0000447554
10.0000473525
10.0000478498
10.0000465917
10.0000440387
10.0000406651
10.0000368893
10.0000330396
10.0000293458
10.0000259491
10.0000229193
10.0000202758
10.0000180022
10.0000160596
10.0000144061
10.0000129978
10.0000117942
10.0000107586
10.0000098603
10.0000090729
10.0000083752
10.0000077496
10.0000071816
10.0000066593
10.000006173
10.0000057145
10.0000052762
10.0000048534
10.0000044384
10.0000040315
10.0000036205
10.0000032164
10.000002793
10.0000023866
10.0000019335
10.0000015313
10.0000010235
10.0000006521
10.000000043
9.99999976853
9.99999896346
9.99999893239
10.0000000194
10.0000000411
10.0000000523
10.0000000642
10.0000000807
10.0000001042
10.0000001381
10.0000001843
10.0000002424
10.0000003097
10.0000003838
10.0000004614
10.0000005404
10.0000006178
10.0000006938
10.0000007656
10.0000008379
10.0000009047
10.0000009798
10.0000010462
10.0000011371
10.0000012075
10.000001335
10.0000014063
10.0000016032
10.0000016504
10.0000019764
10.0000019237
10.0000025014
10.0000021638
10.0000032612
10.0000022287
10.0000044132
10.0000018639
10.0000062117
10.0000007683
10.0000088505
9.99999899341
10.0000115749
9.99999846617
10.0000103017
10.0000063977
9.99999354173
10.0000390328
9.99994122042
10.0001168524
9.99983950215
10.0002371
9.9997187418
10.0003360488
9.99966996596
10.0003210827
9.99974369508
10.0002275445
9.99982502426
10.0001369623
10.0000049366
10.0000748467
9.99944746555
9.99763700548
9.9940900684
9.98880011691
9.98241785824
9.97625133918
9.97169978485
9.96966069319
9.97028486034
9.9730777679
9.97724863651
9.98198449893
9.98658761741
9.99058172677
9.99374258881
9.99605314947
9.99762765876
9.99863675479
9.99925018114
9.99960524436
9.99979897465
9.99989461153
9.99993237287
9.99993836549
9.99992992609
9.99991826275
9.99990983704
9.99990744606
9.9999113256
9.99992022168
9.99993228023
9.99994566343
9.99995888847
9.99997094686
9.99998128238
9.99998969855
9.99999624725
10.0000011258
10.0000045996
10.0000069452
10.0000084232
10.0000092516
10.0000096083
10.0000096364
10.0000094443
10.0000091113
10.0000086941
10.0000082316
10.0000077499
10.0000072645
10.0000067857
10.000006317
10.0000058612
10.0000054161
10.0000049814
10.0000045528
10.0000041287
10.0000037055
10.0000032787
10.0000028511
10.0000024075
10.000001971
10.000001494
10.000001054
10.0000005184
10.0000000993
9.9999994572
9.999999122
9.99999827651
9.99999816675
10.0000000201
10.0000000414
10.0000000527
10.0000000635
10.0000000791
10.000000102
10.0000001349
10.0000001797
10.0000002365
10.0000003037
10.0000003787
10.000000458
10.0000005394
10.0000006195
10.0000006985
10.0000007731
10.0000008482
10.0000009178
10.0000009944
10.0000010646
10.0000011547
10.0000012325
10.0000013534
10.0000014421
10.0000016182
10.0000017069
10.0000019772
10.00000202
10.0000024662
10.0000023322
10.0000031563
10.0000025039
10.0000042295
10.0000021955
10.0000061577
10.0000006763
10.0000099557
9.99999653558
10.0000172643
9.99998806808
10.0000290201
9.99997643987
10.0000394839
9.99997543094
10.0000227797
10.000026387
9.99992262212
10.0001928421
9.99968783043
10.0004819512
9.99939581165
10.0006994067
9.99934553633
10.0005726235
9.9994828539
10.0006668757
9.9997811676
9.99861531448
9.99206242507
9.97922098711
9.9586007382
9.9317244745
9.90253748608
9.87705221785
9.86047380518
9.855353291
9.86125818852
9.87551359489
9.89481061805
9.91609597784
9.936715816
9.95478521729
9.96934837763
9.98023786362
9.98783094246
9.99279936694
9.9958834583
9.99773103254
9.9988228671
9.99947110106
9.99985781065
10.0000826057
10.0002008146
10.0002469314
10.000245883
10.0002170596
10.0001752431
10.000130818
10.0000902014
10.0000566109
10.0000309867
10.0000128604
10.0000010502
9.99999414203
9.99999078055
9.99998981403
9.99999034004
9.99999170024
9.99999343664
9.99999526212
9.9999969889
9.99999852421
9.99999983028
10.0000009018
10.000001753
10.0000024058
10.0000028874
10.000003221
10.0000034323
10.0000035371
10.0000035573
10.0000034985
10.0000033814
10.0000032007
10.0000029798
10.0000027014
10.0000023959
10.000002033
10.0000016517
10.0000012119
10.0000007543
10.000000246
9.9999996977
9.99999913949
9.99999846078
9.99999790099
9.99999700243
9.99999656031
10.0000000202
10.0000000404
10.00000005
10.0000000601
10.0000000753
10.0000000981
10.0000001308
10.0000001752
10.0000002316
10.0000002987
10.0000003741
10.0000004546
10.0000005376
10.00000062
10.0000007013
10.000000779
10.0000008561
10.0000009297
10.000001007
10.000001083
10.0000011705
10.0000012592
10.00000137
10.0000014819
10.0000016295
10.0000017713
10.0000019679
10.0000021365
10.0000023974
10.0000025655
10.0000029328
10.0000030021
10.0000036377
10.0000032735
10.0000047911
10.0000028541
10.0000072811
10.0000001762
10.0000135817
9.99999136074
10.0000291978
9.99996927238
10.0000618149
9.99992866978
10.0001082793
9.9998911912
10.000115388
9.99995552283
9.99993177432
10.0003183388
9.99935431637
10.0010855683
9.9986162884
10.0013095494
9.99923241766
10.0016907362
9.99489468543
9.98020538058
9.9397342819
9.87712376117
9.78913418835
9.68672576319
9.58560088483