/*--------------------------------*- C++ -*----------------------------------*\
  =========                 |
  \\      /  F ield         | OpenFOAM: The Open Source CFD Toolbox
   \\    /   O peration     | Website:  https://openfoam.org
    \\  /    A nd           | Version:  7
     \\/     M anipulation  |
\*---------------------------------------------------------------------------*/
FoamFile
{
    version     2.0;
    format      ascii;
    class       volScalarField;
    location    "600";
    object      p;
}
// * * * * * * * * * * * * * * * * * * * * * * * * * * * * * * * * * * * * * //

dimensions      [0 2 -2 0 0 0 0];

internalField   nonuniform List<scalar> 
8192
(
0.00068600903778
0.000514477949696
0.000428909366157
0.000384860904382
0.000359907127069
0.00034473991604
0.000334936990384
0.000328251603774
0.000323475991495
0.00031992602339
0.000317194656787
0.000315028490964
0.000313263226986
0.000311788468307
0.000310527717254
0.000309426549857
0.000308445360658
0.000307554755175
0.000306732529617
0.000305961632791
0.000305228753569
0.00030452331719
0.000303836754683
0.000303161958118
0.000302492863872
0.000301824124601
0.000301150842196
0.000300468343276
0.000299771982543
0.000299056962118
0.000298318158292
0.000297549948853
0.000296746035424
0.000295899256462
0.000295001387764
0.000294042928889
0.00029301287578
0.000291898482553
0.00029068501881
0.000289355533416
0.000287890641158
0.000286268355302
0.00028446399593
0.000282450210473
0.000280197147117
0.000277672822076
0.000274843715112
0.000271675612614
0.000268134692547
0.000264188812979
0.000259808930302
0.000254970544106
0.000249655052903
0.000243850918299
0.0002375545755
0.000230771086263
0.000223514583968
0.000215808586899
0.000207686241602
0.000199190507673
0.000190374209933
0.000181299762808
0.000172038247011
0.000162667507601
0.000153269166921
0.000143924874468
0.000134712493136
0.000125702986176
0.000116958518985
0.000108531831828
0.000100466539103
9.27978618999e-05
8.55533843932e-05
7.87536059682e-05
7.24122249312e-05
6.65362076413e-05
6.11257728848e-05
5.61744530274e-05
5.16693725532e-05
4.75918226969e-05
4.39181327257e-05
4.0620771813e-05
3.76695748461e-05
3.50329753525e-05
3.26791425254e-05
3.05769485247e-05
2.86967259601e-05
2.70108067535e-05
2.54938570442e-05
2.41230377023e-05
2.28780264495e-05
2.17409381576e-05
2.06961762226e-05
1.97302425304e-05
1.88315273203e-05
1.7990094642e-05
1.71974740659e-05
1.64464654735e-05
1.57309606643e-05
1.50457834557e-05
1.43865483933e-05
1.37495373177e-05
1.31315923972e-05
1.25300240174e-05
1.19425317489e-05
1.13671366986e-05
1.08021235817e-05
1.02459910532e-05
9.69740894472e-06
9.15518129358e-06
8.61821420223e-06
8.08548785183e-06
7.55603223411e-06
7.02890659825e-06
6.50318311831e-06
5.97793617507e-06
5.45223995588e-06
4.92517935793e-06
4.39588298776e-06
3.86359390474e-06
3.32780623312e-06
2.78851965452e-06
2.24671120448e-06
1.70522298651e-06
1.17048816075e-06
6.56072584224e-07
1.91384916539e-07
-7.66859409992e-08
0.000537076484202
0.00047358161188
0.000423933453049
0.000391335662073
0.000369471472972
0.000354345182186
0.000343575024221
0.000335694517007
0.000329777715686
0.000325226075617
0.000321643668896
0.000318762591381
0.000316397547514
0.000314417684307
0.000312728783072
0.000311261773367
0.00030996517352
0.000308800014489
0.000307736363476
0.000306750897117
0.000305825175549
0.000304944392349
0.000304096452522
0.000303271279605
0.000302460284485
0.000301655949032
0.000300851490675
0.000300040585753
0.000299217133774
0.000298375048231
0.000297508064228
0.000296609555167
0.000295672352439
0.000294688563641
0.000293649386229
0.000292544915202
0.000291363945216
0.000290093769976
0.000288719984642
0.000287226300795
0.000285594387872
0.000283803760157
0.000281831733632
0.000279653481899
0.000277242223344
0.000274569571604
0.000271606075832
0.000268321965022
0.000264688090607
0.000260677035377
0.000256264327876
0.000251429677365
0.000246158132991
0.000240441080344
0.000234277020417
0.000227672123428
0.0002206405945
0.00021320490993
0.000205395971179
0.000197253186296
0.000188824429797
0.000180165741792
0.000171340515432
0.000162417887796
0.000153470221564
0.000144569938179
0.000135786296215
0.000127182754882
0.00011881535292
0.000110732139874
0.000102973356523
9.55719548004e-05
8.85541370244e-05
8.19397481952e-05
7.57424782102e-05
6.99699152253e-05
6.46235498979e-05
5.96988572254e-05
5.51855664124e-05
5.10681783697e-05
4.73267271929e-05
4.39377290925e-05
4.08752309585e-05
3.81118635969e-05
3.56198163523e-05
3.33716733359e-05
3.13410784231e-05
2.95032210421e-05
2.78351534832e-05
2.63159624325e-05
2.4926822838e-05
2.36509630176e-05
2.24735673951e-05
2.13816392995e-05
2.03638415897e-05
1.94103285435e-05
1.8512578503e-05
1.76632336828e-05
1.6855951008e-05
1.60852660875e-05
1.53464710613e-05
1.46355062344e-05
1.39488647885e-05
1.32835095857e-05
1.2636800863e-05
1.2006433617e-05
1.13903834608e-05
1.07868598641e-05
1.01942657623e-05
9.61116270993e-06
9.03624089653e-06
8.46829359443e-06
7.90619585498e-06
7.34888766998e-06
6.79536230373e-06
6.2446612835e-06
5.6958786363e-06
5.14817871699e-06
4.60083464708e-06
4.05329869351e-06
3.50532279192e-06
2.95715873978e-06
2.4098864407e-06
1.86595152994e-06
1.33005196466e-06
8.10662159364e-07
3.22058879545e-07
-1.91977982589e-08
0.000454080355799
0.000431439421995
0.000405488666026
0.000384300433859
0.000368230651664
0.000355966606567
0.000346486736315
0.000339062270816
0.000333170652914
0.000328432509851
0.000324569586429
0.000321375991474
0.000318698082514
0.000316420205746
0.000314454512667
0.000312733648579
0.000311205473752
0.000309829227187
0.000308572717262
0.000307410246346
0.000306321062688
0.000305288193328
0.000304297553994
0.000303337261532
0.000302397095221
0.000301468067357
0.000300542073322
0.000299611602207
0.000298669490966
0.000297708708153
0.000296722158395
0.0002957025002
0.000294641971303
0.000293532217315
0.000292364120751
0.000291127629061
0.000289811581832
0.000288403539475
0.000286889618061
0.000285254338126
0.000283480498866
0.000281549093428
0.000279439285453
0.000277128471365
0.000274592455813
0.000271805768291
0.000268742144966
0.000265375190024
0.000261679213754
0.000257630221247
0.000253206998446
0.000248392218129
0.000243173474896
0.000237544164544
0.00023150415253
0.000225060224044
0.000218226355073
0.000211023866999
0.000203481515047
0.000195635529502
0.000187529589639
0.000179214633862
0.00017074826666
0.000162193423781
0.000153616101999
0.00014508238814
0.000136655414975
0.000128392914209
0.000120345803947
0.000112557810872
0.000105065760638
9.79001027424e-05
9.1085381983e-05
8.46405427055e-05
7.85790532908e-05
7.29088965338e-05
6.76325208654e-05
6.27468746378e-05
5.8243628277e-05
5.41096362189e-05
5.03276281569e-05
4.68770707606e-05
4.37351151951e-05
4.08775428317e-05
3.82796350033e-05
3.59169157539e-05
3.37657413378e-05
3.18037321496e-05
3.00100584388e-05
2.83656006911e-05
2.68530093242e-05
2.54566884202e-05
2.41627256597e-05
2.29587871398e-05
2.18339917869e-05
2.07787765411e-05
1.97847602618e-05
1.88446118406e-05
1.7951925939e-05
1.71011083622e-05
1.62872719351e-05
1.55061430761e-05
1.4753978709e-05
1.40274929105e-05
1.33237924714e-05
1.26403205296e-05
1.19748073865e-05
1.13252277071e-05
1.06897633467e-05
1.00667711952e-05
9.45475552779e-06
8.85234456072e-06
8.25827107956e-06
7.67135731852e-06
7.09050458735e-06
6.51468865983e-06
5.94296256698e-06
5.37446939327e-06
4.80846894167e-06
4.24438400833e-06
3.68187464083e-06
3.12095273011e-06
2.5621553327e-06
2.00680408404e-06
1.45738791274e-06
9.18028514587e-07
3.94155951045e-07
-3.2670635664e-09
0.000409463968123
0.000401113473072
0.000386964915947
0.000373217508358
0.000361831634703
0.00035259452643
0.000345052380974
0.000338836425216
0.000333668297356
0.000329335366474
0.000325671874148
0.000322546772589
0.000319855615865
0.000317514763343
0.000315457001298
0.000313628132359
0.000311984283012
0.000310489768482
0.000309115397809
0.000307837127613
0.000306634991339
0.000305492245188
0.000304394683822
0.000303330088554
0.000302287779013
0.000301258243574
0.000300232829993
0.000299203484932
0.000298162529363
0.000297102458804
0.00029601576222
0.000294894753632
0.000293731411717
0.000292517223824
0.000291243031871
0.00028989887879
0.000288473855445
0.000286955949624
0.000285331900706
0.000283587066199
0.000281705309509
0.000279668922164
0.000277458598035
0.00027505348155
0.000272431315659
0.000269568717149
0.000266441604867
0.000263025798649
0.00025929779126
0.000255235672419
0.000250820155192
0.000246035627007
0.00024087112933
0.000235321172947
0.000229386326725
0.000223073573832
0.0002163964885
0.000209375314889
0.000202037011083
0.000194415287007
0.000186550648592
0.000178490399988
0.000170288347347
0.000162003724963
0.000153698989855
0.000145436719163
0.000137276397211
0.000129271921149
0.000121470342497
0.000113911785386
0.000106630015014
9.96531121564e-05
9.30039699165e-05
8.67005581963e-05
8.07559806421e-05
7.51783783665e-05
6.99707852613e-05
6.51310752386e-05
6.06521195561e-05
5.65222060264e-05
5.27257001186e-05
4.92438776773e-05
4.60558365935e-05
4.31393966999e-05
4.0471915301e-05
3.80309718435e-05
3.57949013364e-05
3.37431774626e-05
3.1856660446e-05
3.01177321804e-05
2.85103431343e-05
2.70199942556e-05
2.56336738731e-05
2.43397658385e-05
2.31279413631e-05
2.19890437554e-05
2.0914972501e-05
1.98985710349e-05
1.89335209012e-05
1.80142438487e-05
1.71358125408e-05
1.62938700151e-05
1.54845576222e-05
1.47044509703e-05
1.39505032453e-05
1.32199952513e-05
1.25104914831e-05
1.18198016008e-05
1.11459467112e-05
1.04871299571e-05
9.841710991e-06
9.20818403672e-06
8.58515935773e-06
7.97134812456e-06
7.36555085199e-06
6.76664983865e-06
6.17360634588e-06
5.585463699e-06
5.00135808665e-06
4.42053975019e-06
3.84240865356e-06
3.26657097625e-06
2.69292588145e-06
2.12179351193e-06
1.55407442665e-06
9.91274180986e-07
4.34478078066e-07
-4.74664517332e-10
0.000381779129172
0.000379859749066
0.000372108394086
0.000362959038042
0.000354716006583
0.000347716091405
0.000341801984521
0.00033676823202
0.000332446474826
0.000328707073676
0.000325448816801
0.000322590502614
0.000320065527336
0.000317818495752
0.000315802979277
0.000313979902898
0.000312316293532
0.000310784259053
0.000309360133503
0.000308023753726
0.000306757845372
0.000305547501658
0.000304379740873
0.000303243130255
0.000302127466241
0.000301023497841
0.00029992268668
0.00029881699911
0.000297698721816
0.000296560293677
0.00029539415069
0.000294192579902
0.000292947578991
0.000291650718819
0.000290293006928
0.00028886475079
0.000287355420512
0.000285753512012
0.000284046413271
0.000282220278493
0.000280259917879
0.000278148714398
0.000275868583399
0.000273399995937
0.000270722091585
0.000267812910074
0.000264649771236
0.000261209826938
0.000257470794154
0.000253411853933
0.000249014668207
0.000244264431674
0.000239150850222
0.000233668935329
0.000227819537929
0.000221609616442
0.000215052314844
0.000208166965403
0.00020097909582
0.000193520470567
0.000185829217018
0.000177950074463
0.000169934496536
0.000161839886047
0.000153727328459
0.000145658073473
0.000137689849448
0.000129874132614
0.000122255032554
0.000114869635694
0.000107749001408
0.000100919072343
9.44012262572e-05
8.82125123811e-05
8.23656421978e-05
7.68687889312e-05
7.17253161718e-05
6.69336132262e-05
6.24871832299e-05
5.83750384121e-05
5.45823674929e-05
5.10913853615e-05
4.78822563795e-05
4.49339911163e-05
4.2225241353e-05
3.97349497563e-05
3.74428399456e-05
3.53297546924e-05
3.3377863047e-05
3.15707626022e-05
2.98935030864e-05
2.83325544936e-05
2.68757386857e-05
2.55121390649e-05
2.42319990135e-05
2.30266166343e-05
2.1888240834e-05
2.08099719726e-05
1.97856689556e-05
1.88098637363e-05
1.78776835489e-05
1.69847807968e-05
1.61272702463e-05
1.53016730414e-05
1.45048669689e-05
1.37340423873e-05
1.29866632359e-05
1.22604325778e-05
1.15532621679e-05
1.08632456028e-05
1.01886346591e-05
9.52781850471e-06
8.8793055368e-06
8.24170768869e-06
7.61372714842e-06
6.99414556761e-06
6.38181601511e-06
5.77565820847e-06
5.1746579733e-06
4.5778725619e-06
3.98444446573e-06
3.3936275459e-06
2.80482921444e-06
2.21766421365e-06
1.63197194367e-06
1.04757812084e-06
4.63128449516e-07
2.68231781363e-10
0.000363371381244
0.000364328094179
0.000360339958358
0.000354250424076
0.000348192710133
0.000342789181462
0.000338090633294
0.000334002324921
0.000330417778533
0.000327248601671
0.000324425496094
0.000321893692778
0.000319608746118
0.000317533629254
0.000315636879807
0.000313891414252
0.000312273730532
0.000310763329048
0.00030934225839
0.000307994737052
0.000306706826433
0.000305466142562
0.000304261599603
0.000303083180657
0.000301921734347
0.000300768787301
0.000299616375541
0.000298456893445
0.000297282954197
0.000296087258094
0.000294862467637
0.000293601086948
0.000292295343357
0.000290937069278
0.000289517582823
0.000288027566074
0.000286456940544
0.000284794740258
0.000283028984198
0.000281146551742
0.00027913306732
0.000276972804211
0.000274648622064
0.000272141958575
0.000269432902075
0.000266500377527
0.000263322481195
0.000259876995844
0.00025614210478
0.000252097296695
0.000247724414573
0.000243008757491
0.000237940107123
0.000232513540528
0.000226729927935
0.000220596107509
0.000214124847087
0.000207334761107
0.000200250283011
0.000192901699277
0.000185325335927
0.000177564104906
0.000169668176869
0.000161694662925
0.000153705182759
0.000145761598181
0.00013792149958
0.00013023504088
0.000122744005736
0.000115482780534
0.000108479967541
0.000101759592121
9.53416931184e-05
8.92425185605e-05
8.34744463978e-05
7.80456570475e-05
7.29596970315e-05
6.82151744308e-05
6.38057762566e-05
5.97206631567e-05
5.5945181656e-05
5.24617746955e-05
4.92509582598e-05
4.62922494375e-05
4.35649657596e-05
4.10488550684e-05
3.87245492096e-05
3.65738581875e-05
3.45799332871e-05
3.27273306983e-05
3.10020046367e-05
2.93912539552e-05
2.78836406148e-05
2.64688933301e-05
2.51378055394e-05
2.38821337182e-05
2.2694499744e-05
2.15682994515e-05
2.04976184175e-05
1.94771553314e-05
1.85021528493e-05
1.75683355799e-05
1.66718546914e-05
1.58092385735e-05
1.49773489587e-05
1.41733419311e-05
1.33946332664e-05
1.26388676019e-05
1.1903890966e-05
1.11877262504e-05
1.04885512501e-05
9.80467894434e-06
9.13453973592e-06
8.47666542541e-06
7.829674755e-06
7.19226045544e-06
6.56317785613e-06
5.94123533051e-06
5.32528714479e-06
4.71422967672e-06
4.10700226853e-06
3.50259343506e-06
2.90004908707e-06
2.29846358639e-06
1.69688350915e-06
1.09392140009e-06
4.86669673589e-07
1.5144604765e-09
0.000350443438724
0.000352640116311
0.00035090292978
0.000346931868244
0.00034248021226
0.000338266447283
0.000334480945701
0.00033111880274
0.000328123164948
0.000325433979354
0.000323000493893
0.000320782081668
0.000318746198769
0.000316866220278
0.00031511979718
0.000313487735813
0.000311953258477
0.00031050151036
0.000309119216315
0.000307794426191
0.000306516312375
0.000305274998904
0.00030406141083
0.000302867137493
0.000301684309372
0.000300505476209
0.000299323494404
0.000298131423992
0.000296922427911
0.000295689673437
0.000294426235298
0.000293124999055
0.00029177856333
0.000290379139503
0.000288918447628
0.000287387607471
0.000285777023946
0.000284076266822
0.000282273945551
0.000280357581657
0.000278313483525
0.00027612663203
0.00027378059048
0.00027125745908
0.000268537902176
0.000265601284921
0.000262425962172
0.000258989762198
0.000255270695798
0.000251247892761
0.000246902721239
0.000242219987974
0.000237189064053
0.000231804757214
0.000226067789214
0.000219984859778
0.00021356845663
0.000206836669016
0.000199813134195
0.000192527043635
0.000185013318144
0.000177313487046
0.000169477217253
0.000161562723432
0.000153634067931
0.000145755689254
0.000137986584249
0.000130376468108
0.000122965117909
0.000115784307499
0.000108860306486
0.000102215415153
9.586851811e-05
8.98352109459e-05
8.41276539462e-05
7.87540882063e-05
7.37181781983e-05
6.90185285601e-05
6.46486302613e-05
6.05972847174e-05
5.68494054276e-05
5.33870362245e-05
5.01904224999e-05
4.72390017326e-05
4.45122268097e-05
4.1990185489e-05
3.96540195992e-05
3.74861723778e-05
3.54705024678e-05
3.3592302881e-05
3.18382575414e-05
3.01963605182e-05
2.86558158857e-05
2.72069302526e-05
2.58410055711e-05
2.45502367145e-05
2.33276162166e-05
2.21668472181e-05
2.10622648355e-05
2.00087656831e-05
1.90017450145e-05
1.80370408278e-05
1.71108842391e-05
1.62198554358e-05
1.53608445642e-05
1.45310169449e-05
1.37277820737e-05
1.29487659078e-05
1.21917859949e-05
1.14548290418e-05
1.0736030563e-05
1.00336562871e-05
9.3460850332e-06
8.67179281402e-06
8.00933796399e-06
7.35734715976e-06
6.71450228329e-06
6.07952818516e-06
5.45118150159e-06
4.82824062997e-06
4.20949637472e-06
3.59374050681e-06
2.97974258439e-06
2.3661866889e-06
1.7514949896e-06
1.13338226036e-06
5.07927410033e-07
4.52727623762e-09
0.0003409551852
0.000343626140732
0.000343243674163
0.000340757869285
0.000337522479398
0.000334234900676
0.000331162112112
0.000328367464945
0.000325837364064
0.00032353675622
0.0003214296173
0.000319484901754
0.000317677200369
0.000315985828935
0.000314393695293
0.000312886351089
0.000311451293216
0.000310077475067
0.000308754968983
0.000307474729707
0.000306228422356
0.000305008290507
0.000303807048879
0.000302617790966
0.000301433908642
0.000300249010289
0.000299056843097
0.000297851223828
0.000296625966222
0.000295374807805
0.000294091335251
0.000292768907248
0.000291400573743
0.000289978990359
0.000288496326753
0.000286944167675
0.000285313405606
0.000283594124207
0.000281775472468
0.000279845530712
0.00027779117177
0.000275597924143
0.000273249849328
0.000270729453159
0.000268017661075
0.000265093898851
0.000261936330821
0.000258522311958
0.000254829100824
0.000250834849665
0.000246519832153
0.00024186779432
0.000236867238486
0.000231512404631
0.00022580374466
0.000219747844093
0.000213357019848
0.000206649004782
0.000199646903963
0.000192379155459
0.00018487952955
0.000177188315355
0.000169355177553
0.000161440823912
0.00015351391452
0.000145643698245
0.000137892217383
0.000130309476163
0.000122933241161
0.000115792481196
0.000108911150001
0.000102310010329
9.60069780469e-05
9.00171480567e-05
8.43526135564e-05
7.90217886667e-05
7.40284442139e-05
6.93709915136e-05
6.50423609408e-05
6.10304969417e-05
5.73193037609e-05
5.38898246927e-05
5.07214516842e-05
4.77930083329e-05
4.50836128633e-05
4.25732912792e-05
4.02433587155e-05
3.80766130477e-05
3.60573919386e-05
3.41715398594e-05
3.24063218059e-05
3.07503099687e-05
2.91932606475e-05
2.77259919711e-05
2.63402682901e-05
2.50286941033e-05
2.37846185028e-05
2.26020500824e-05
2.14755816703e-05
2.04003240062e-05
1.93718473857e-05
1.83861303216e-05
1.74395143245e-05
1.65286639954e-05
1.56505317073e-05
1.48023262387e-05
1.39814847975e-05
1.31856479426e-05
1.24126369652e-05
1.16604333455e-05
1.09271599342e-05
1.02110635529e-05
9.51049872857e-06
8.82391231412e-06
8.14982877088e-06
7.48683591784e-06
6.83357096512e-06
6.18870662349e-06
5.55093691941e-06
4.91896184203e-06
4.29146857146e-06
3.66710360666e-06
3.04442203029e-06
2.42178253115e-06
1.79712357574e-06
1.16751354475e-06
5.28380029084e-07
1.00284838171e-08
0.000333743734494
0.000336532092568
0.000336963729405
0.000335522934343
0.000333219195274
0.000330671612507
0.000328175192793
0.000325838755598
0.000323684055392
0.000321698749779
0.000319860526095
0.000318146706944
0.000316537366254
0.00031501583118
0.000313568282417
0.0003121831505
0.000310850559303
0.000309561883803
0.00030830942045
0.000307086147771
0.000305885552833
0.000304701503187
0.000303528149089
0.00030235984608
0.000301191090056
0.000300016455614
0.000298830536136
0.000297627893818
0.000296403004735
0.000295150202416
0.000293863618614
0.000292537120152
0.000291164240652
0.000289738105849
0.000288251351066
0.000286696029299
0.000285063508277
0.000283344354958
0.000281528206242
0.00027960362564
0.000277557947408
0.000275377113018
0.000273045510395
0.000270545834979
0.000267859003958
0.000264964170504
0.000261838900969
0.000258459588694
0.000254802173436
0.000250843203403
0.000246561210184
0.000241938269866
0.000236961517555
0.00023162430403
0.000225926693306
0.00021987519502
0.000213482049495
0.000206764744017
0.000199746078193
0.000192454101323
0.000184921599523
0.000177187389985
0.00016930128814
0.000161328011558
0.000153343514216
0.000145424639747
0.000137638387077
0.000130035654322
0.000122651785554
0.000115512412097
0.000108639127035
0.000102051395849
9.57663461571e-05
8.9798691048e-05
8.41606190336e-05
7.88608728656e-05
7.39033425271e-05
6.92860420338e-05
6.50009360637e-05
6.10345665834e-05
5.73692119956e-05
5.39842898438e-05
5.0857752915e-05
4.79672942715e-05
4.52912613728e-05
4.2809260893e-05
4.05024927624e-05
3.83538781597e-05
3.63480484103e-05
3.44712508521e-05
3.2711212708e-05
3.1056990005e-05
2.94988177075e-05
2.80279696753e-05
2.66366322633e-05
2.53177925497e-05
2.40651406718e-05
2.28729850222e-05
2.17361788074e-05
2.06500564536e-05
1.9610378457e-05
1.8613283423e-05
1.76552462136e-05
1.67330412634e-05
1.58437102754e-05
1.49845336143e-05
1.41530048231e-05
1.33468077621e-05
1.25637959449e-05
1.180197369e-05
1.10594787576e-05
1.03345661692e-05
9.6255929343e-06
8.93100342398e-06
8.24931513454e-06
7.57910456329e-06
6.91899285373e-06
6.26763069376e-06
5.62368155793e-06
4.9858015041e-06
4.35261184246e-06
3.7226570233e-06
3.09433214553e-06
2.46574991023e-06
1.8344949985e-06
1.19719719766e-06
5.48890353623e-07
1.84845644358e-08
0.000328113826362
0.00033085646762
0.000331772490857
0.000331066909539
0.000329478543721
0.000327529105721
0.000325509611916
0.000323554157656
0.000321710692729
0.00031998632087
0.00031837151089
0.000316851622274
0.00031541181486
0.000314038804276
0.000312721233397
0.000311449504816
0.000310215452891
0.000309012010852
0.000307832926785
0.000306672538776
0.000305525602938
0.000304387163314
0.000303252452702
0.000302116817856
0.000300975656169
0.000299824360912
0.000298658269717
0.0002974726225
0.000296262516115
0.000295022857495
0.000293748313788
0.000292433258084
0.000291071709293
0.000289657264651
0.000288183023082
0.000286641497438
0.000285024513353
0.000283323092268
0.000281527316179
0.000279626172137
0.000277607375916
0.000275457177255
0.000273160154639
0.000270699017131
0.000268054445316
0.000265205023466
0.000262127338321
0.000258796339551
0.000255186059989
0.000251270762613
0.000247026502293
0.00024243296593
0.000237475309137
0.000232145581393
0.000226443294705
0.000220374903838
0.000213952610823
0.00020719363909
0.000200120636911
0.000192761752294
0.000185148967524
0.000177318859152
0.000169321002086
0.000161225936188
0.000153120573597
0.000145093060739
0.000137217762753
0.00012954697516
0.000122112626076
0.000114936023748
0.000108036392148
0.000101432290642
9.5140202705e-05
8.91744726907e-05
8.35475249275e-05
7.82686137458e-05
7.33417489686e-05
6.87642704318e-05
6.45266660184e-05
6.06134203625e-05
5.70044752189e-05
5.36769290171e-05
5.06066727361e-05
4.776974564e-05
4.514330617e-05
4.27062183239e-05
4.04393210846e-05
3.83254727776e-05
3.63494564761e-05
3.44978131141e-05
3.27586473509e-05
3.11214332413e-05
2.9576833905e-05
2.81165412085e-05
2.67331367332e-05
2.54199728684e-05
2.4171071805e-05
2.29810399217e-05
2.18449951449e-05
2.0758505135e-05
1.97175344514e-05
1.87183991609e-05
1.77577276084e-05
1.68324263041e-05
1.59396500577e-05
1.50767756478e-05
1.42413784269e-05
1.34312113649e-05
1.26441861005e-05
1.18783556371e-05
1.11318983536e-05
1.04031030393e-05
9.69035467253e-06
8.99212066632e-06
8.30693727766e-06
7.63339581094e-06
6.9701280988e-06
6.31579045158e-06
5.66904468573e-06
5.02853371811e-06
4.39284706045e-06
3.76046754772e-06
3.12968358538e-06
2.49844016657e-06
1.86408899403e-06
1.22299545862e-06
5.69997045792e-07
3.01949389655e-08
0.000323631011175
0.000326256939544
0.000327454026567
0.000327264627018
0.000326224775046
0.00032476035087
0.000323140167875
0.000321507976218
0.000319929019858
0.00031842580998
0.000317000113625
0.0003156449106
0.000314350336828
0.000313106372006
0.000311903884271
0.000310734899924
0.000309592540266
0.000308470839672
0.000307364542188
0.000306268916176
0.000305179599285
0.000304092473958
0.000303003568849
0.000301908984531
0.000300804829358
0.000299687163758
0.000298551953353
0.000297395028599
0.00029621204367
0.000294998434307
0.000293749372932
0.000292459719366
0.00029112396546
0.000289736171759
0.000288289894101
0.000286778097603
0.000285193055108
0.000283526226592
0.000281768115688
0.000279908099397
0.000277934227854
0.000275832993403
0.000273589073579
0.000271185062634
0.000268601223135
0.000265815314267
0.000262802585721
0.000259536058069
0.000255987225957
0.000252127293886
0.00024792896279
0.000243368627455
0.000238428650202
0.00023309918689
0.000227378916453
0.000221274196527
0.000214797104779
0.000207964303293
0.000200798248447
0.000193327952537
0.000185585019301
0.000177602162266
0.000169427361847
0.000161139364133
0.0001528413643
0.000144637967615
0.000136614142976
0.000128824028273
0.000121294239851
0.000114040115038
0.000107078742633
0.000100428473299
9.410514419e-05
8.81224818132e-05
8.24932075028e-05
7.7227275468e-05
7.2328747623e-05
6.77938565796e-05
6.36109148782e-05
5.97615179685e-05
5.6222413044e-05
5.29675795317e-05
4.99701627949e-05
4.72040062577e-05
4.46446755004e-05
4.22700045962e-05
4.00602732856e-05
3.79981420042e-05
3.60684535863e-05
3.42579793155e-05
3.25551573925e-05
3.09498494859e-05
2.94331263844e-05
2.79970852401e-05
2.66346965458e-05
2.53396771547e-05
2.41063852163e-05
2.29297331369e-05
2.18051151857e-05
2.07283469299e-05
1.96956142213e-05
1.87034299004e-05
1.77485967627e-05
1.68281756216e-05
1.59394575388e-05
1.50799394691e-05
1.42473027094e-05
1.34393936467e-05
1.26542063832e-05
1.18898668764e-05
1.11446182763e-05
1.04168071678e-05
9.70487043512e-06
9.00732244647e-06
8.32274220918e-06
7.64976003251e-06
6.98704302772e-06
6.33327838646e-06
5.68715268093e-06
5.04732417682e-06
4.41238295949e-06
3.78078996424e-06
3.15078017698e-06
2.52020744815e-06
1.8863015524e-06
1.2453118059e-06
5.92041206032e-07
4.53272272283e-08
0.000320012176701
0.000322493922712
0.000323845166756
0.000324016497615
0.000323395919417
0.000322324332976
0.000321039915833
0.000319685215276
0.00031833513762
0.000317023407978
0.000315761162963
0.000314548274616
0.000313379653885
0.000312248511604
0.000311147911763
0.000310071419188
0.000309013293167
0.000307968469971
0.000306932459781
0.000305901219648
0.000304871030514
0.000303838389127
0.000302799917128
0.000301752289908
0.000300692174486
0.000299616170962
0.000298520769108
0.000297402307731
0.000296256935163
0.000295080569206
0.000293868854679
0.000292617116762
0.00029132030817
0.000289972948029
0.000288569049914
0.000287102036015
0.000285564633667
0.000283948749683
0.000282245317004
0.00028044410751
0.00027853350477
0.000276500232011
0.000274329035212
0.000272002331326
0.000269499850392
0.00026679833089
0.000263871370651
0.000260689584449
0.000257221253863
0.000253433639681
0.000249295023688
0.000244777346975
0.000239859058159
0.000234527522476
0.000228780076029
0.000222622798416
0.000216067317376
0.000209128852899
0.000201829096784
0.000194199188739
0.000186271558782
0.000178071974462
0.000169643653451
0.000161077041159
0.000152499809704
0.00014404037337
0.000135798905348
0.000127831925225
0.000120157352736
0.000112781839803
0.000105721249768
9.89949530644e-05
9.26176840694e-05
8.66017163155e-05
8.09599557595e-05
7.57032170431e-05
7.08353840598e-05
6.63508717868e-05
6.22348321983e-05
5.84648939373e-05
5.5013559441e-05
5.18507575638e-05
4.89461358229e-05
4.62707874903e-05
4.37983105046e-05
4.15052757481e-05
3.93712707182e-05
3.73786902995e-05
3.55124091736e-05
3.37594238964e-05
3.2108513627e-05
3.05499416662e-05
2.90752039298e-05
2.76768221783e-05
2.63481762645e-05
2.5083368766e-05
2.38771157271e-05
2.27246581266e-05
2.16216896641e-05
2.05642973763e-05
1.95489123497e-05
1.85722684224e-05
1.76313672337e-05
1.67234483573e-05
1.58459635229e-05
1.49965541483e-05
1.4173031556e-05
1.33733593703e-05
1.25956376779e-05
1.18380885984e-05
1.10990429523e-05
1.03769277397e-05
9.67025413606e-06
8.97760568878e-06
8.29762631616e-06
7.62900757384e-06
6.97047439282e-06
6.32076805041e-06
5.67862437402e-06
5.0427439036e-06
4.41174865562e-06
3.78411689467e-06
3.15808274056e-06
2.53148217928e-06
1.90152397953e-06
1.26446955828e-06
6.15226897847e-07
6.39331590454e-08
0.00031706524073
0.000319395490282
0.000320820633833
0.000321241837628
0.000320940414901
0.000320186019116
0.000319183930963
0.000318068686551
0.000316918889042
0.000315775615653
0.000314657271369
0.000313569637237
0.000312512019571
0.000311480758524
0.000310471109342
0.000309478179332
0.000308497342111
0.000307524375962
0.0003065554654
0.000305587141726
0.000304616202132
0.000303639626836
0.000302654503557
0.000301657963821
0.000300647125353
0.000299619035119
0.000298570628158
0.000297498687505
0.00029639980578
0.000295270346443
0.000294106402887
0.000292903753453
0.000291657810277
0.000290363559594
0.000289015490589
0.000287607509224
0.000286132832478
0.000284583857233
0.000282951996565
0.000281227474697
0.00027939907073
0.000277453801466
0.000275376536849
0.000273149550907
0.000270752030874
0.000268159602919
0.000265343988323
0.000262272974522
0.000258910948609
0.000255220247407
0.000251163466344
0.000246706616986
0.000241822698682
0.000236494922849
0.000230718372948
0.000224498410823
0.000217845471092
0.000210771281097
0.000203294812557
0.000195451310253
0.000187277240779
0.00017878567467
0.000170008346195
0.000161053169826
0.000152085595637
0.000143268431513
0.000134723979847
0.000126512279267
0.000118636575276
0.000111090204131
0.000103890297661
9.7059265845e-05
9.06090525217e-05
8.45484167363e-05
7.88900321416e-05
7.36456660525e-05
6.88184803839e-05
6.4399919639e-05
6.03706013083e-05
5.67028153157e-05
5.33635590811e-05
5.0317652571e-05
4.75304489692e-05
4.4969761516e-05
4.26069159964e-05
4.04170802393e-05
3.83791161432e-05
3.64751810056e-05
3.46902400436e-05
3.30115858407e-05
3.1428411047e-05
2.99314498425e-05
2.85126871955e-05
2.7165127625e-05
2.58826130373e-05
2.46596795811e-05
2.34914448814e-05
2.23735186543e-05
2.13019312377e-05
2.02730758529e-05
1.92836614321e-05
1.83306736227e-05