/*--------------------------------*- C++ -*----------------------------------*\
  =========                 |
  \\      /  F ield         | OpenFOAM: The Open Source CFD Toolbox
   \\    /   O peration     | Website:  https://openfoam.org
    \\  /    A nd           | Version:  7
     \\/     M anipulation  |
\*---------------------------------------------------------------------------*/
FoamFile
{
    version     2.0;
    format      ascii;
    class       volVectorField;
    location    "600";
    object      U;
}
// * * * * * * * * * * * * * * * * * * * * * * * * * * * * * * * * * * * * * //

dimensions      [0 1 -1 0 0 0 0];

internalField   nonuniform List<vector> 
8192
(
(0.00104344632067 0.000156553679326 0)
(0.000759277766813 0.000127614873423 0)
(0.000549264555396 8.23983357851e-05 0)
(0.000414027641906 5.28385755228e-05 0)
(0.000326262340731 3.49267234239e-05 0)
(0.000267313179767 2.40224352203e-05 0)
(0.000226109771976 1.71809702156e-05 0)
(0.000196210283697 1.27185157302e-05 0)
(0.000173803589388 9.68817631035e-06 0)
(0.000156564917367 7.55049353371e-06 0)
(0.000143024411076 5.99001068846e-06 0)
(0.000132218151954 4.8162464826e-06 0)
(0.000123491724871 3.91017877481e-06 0)
(0.000116386683409 3.19486099343e-06 0)
(0.00011057291544 2.61890541785e-06 0)
(0.000105807067631 2.14694097748e-06 0)
(0.000101906187511 1.75393788203e-06 0)
(9.87305164433e-05 1.42173208742e-06 0)
(9.61719477357e-05 1.13683569606e-06 0)
(9.41460914405e-05 8.89019862364e-07 0)
(9.25866967794e-05 6.7037426353e-07 0)
(9.14416540797e-05 4.74668118483e-07 0)
(9.06700792573e-05 2.96906620562e-07 0)
(9.02401559129e-05 1.33016892976e-07 0)
(9.01275177885e-05 -2.03783277079e-08 0)
(9.03140230047e-05 -1.66126155445e-07 0)
(9.07868155928e-05 -3.06665386241e-07 0)
(9.15376006777e-05 -4.44118316334e-07 0)
(9.25620806029e-05 -5.80359867396e-07 0)
(9.38595109615e-05 -7.17068366413e-07 0)
(9.54323436451e-05 -8.55761784608e-07 0)
(9.7285930001e-05 -9.97821605343e-07 0)
(9.94282604159e-05 -1.14450538527e-06 0)
(0.000101869717934 -1.29694822512e-06 0)
(0.000104622823309 -1.45615273404e-06 0)
(0.000107701947544 -1.62296655374e-06 0)
(0.000111122965803 -1.79804620592e-06 0)
(0.000114902824005 -1.98180592691e-06 0)
(0.000119058987052 -2.17435046593e-06 0)
(0.000123608736387 -2.3753916198e-06 0)
(0.000128568285714 -2.58414985549e-06 0)
(0.000133951688834 -2.7992448122e-06 0)
(0.000139769524686 -3.01858198885e-06 0)
(0.000146027363576 -3.23924726426e-06 0)
(0.000152724046743 -3.45742569367e-06 0)
(0.000159849848282 -3.66836508252e-06 0)
(0.000167384631325 -3.86640666996e-06 0)
(0.000175296152445 -4.04510265838e-06 0)
(0.000183538699002 -4.19743164193e-06 0)
(0.000192052250709 -4.31610738209e-06 0)
(0.000200762326937 -4.39395579396e-06 0)
(0.000209580610266 -4.42431418324e-06 0)
(0.000218406331881 -4.40139387977e-06 0)
(0.00022712829031 -4.32055092707e-06 0)
(0.000235627289469 -4.17843471469e-06 0)
(0.000243778764001 -3.97302662424e-06 0)
(0.000251455427108 -3.70362388377e-06 0)
(0.000258529909698 -3.37084700211e-06 0)
(0.000264877512011 -2.97674482519e-06 0)
(0.000270379314225 -2.52504843268e-06 0)
(0.000274925953263 -2.02158345388e-06 0)
(0.000278422295772 -1.47475391624e-06 0)
(0.00028079290134 -8.95848654637e-07 0)
(0.000281987560864 -2.98810069164e-07 0)
(0.00028198560126 3.00768276403e-07 0)
(0.000280797561792 8.87267631428e-07 0)
(0.000278463517805 1.44677067184e-06 0)
(0.000275048427271 1.96831210861e-06 0)
(0.000270635817715 2.44428770218e-06 0)
(0.000265321451691 2.87006671234e-06 0)
(0.000259208201449 3.24317024504e-06 0)
(0.000252402589923 3.56242656907e-06 0)
(0.000245012788845 3.82735865402e-06 0)
(0.000237147535758 4.03787773569e-06 0)
(0.000228915388882 4.19425189327e-06 0)
(0.000220423846848 4.29727261605e-06 0)
(0.000211778042974 4.34851369783e-06 0)
(0.000203078946013 4.35056587544e-06 0)
(0.000194421211164 4.3071519294e-06 0)
(0.000185890966707 4.22307596138e-06 0)
(0.000177563860233 4.10401453004e-06 0)
(0.000169503633572 3.95619680347e-06 0)
(0.000161761384261 3.78603788811e-06 0)
(0.000154375545744 3.59978674699e-06 0)
(0.000147372511527 3.40323433818e-06 0)
(0.000140767758001 3.20150680837e-06 0)
(0.000134567290701 2.99894885668e-06 0)
(0.000128769243087 2.79908785014e-06 0)
(0.000123365484032 2.60466100635e-06 0)
(0.000118343128027 2.41768548233e-06 0)
(0.000113685881033 2.2395526509e-06 0)
(0.000109375188623 2.07113152422e-06 0)
(0.000105391178913 1.91287054508e-06 0)
(0.000101713410296 1.7648909954e-06 0)
(9.83214442956e-05 1.62706846137e-06 0)
(9.51952686391e-05 1.49910115311e-06 0)
(9.2315596551e-05 1.38056536508e-06 0)
(8.96640667976e-05 1.27095926144e-06 0)
(8.72233662702e-05 1.16973655438e-06 0)
(8.49772936211e-05 1.07633177166e-06 0)
(8.29107791782e-05 9.90178711455e-07 0)
(8.1009873311e-05 9.10723534713e-07 0)
(7.9261712751e-05 8.37433720182e-07 0)
(7.76544720988e-05 7.69803920685e-07 0)
(7.61773058855e-05 7.07359554262e-07 0)
(7.48202850242e-05 6.49658821665e-07 0)
(7.35743302528e-05 5.96293698519e-07 0)
(7.24311441488e-05 5.46890370486e-07 0)
(7.13831424402e-05 5.0110950236e-07 0)
(7.04233845701e-05 4.58646714897e-07 0)
(6.95455027367e-05 4.1923363358e-07 0)
(6.87436278422e-05 3.82639929155e-07 0)
(6.80123098699e-05 3.4867685104e-07 0)
(6.73464290243e-05 3.17202928899e-07 0)
(6.67410923718e-05 2.88132771939e-07 0)
(6.6191508417e-05 2.6145033343e-07 0)
(6.56928286347e-05 2.37228690159e-07 0)
(6.52399397249e-05 2.15659540981e-07 0)
(6.48271820259e-05 1.97097549783e-07 0)
(6.44479559465e-05 1.82127983667e-07 0)
(6.40941556661e-05 1.71671808051e-07 0)
(6.37553313904e-05 1.67152036278e-07 0)
(6.34174191922e-05 1.707597964e-07 0)
(6.30607860869e-05 1.8587302957e-07 0)
(6.26572569986e-05 2.17655900157e-07 0)
(6.21660578921e-05 2.73543209451e-07 0)
(6.15308336203e-05 3.61681242306e-07 0)
(6.07050436362e-05 4.64109031187e-07 0)
(0.00121015672919 0.000302950628475 0)
(0.00116028900121 0.000315254201849 0)
(0.00102697301919 0.000238088194226 0)
(0.00088770284368 0.000171655799426 0)
(0.000767298994228 0.000124278643266 0)
(0.000669228500069 9.1690163407e-05 0)
(0.00059077886029 6.91662824634e-05 0)
(0.000528116884619 5.32946604025e-05 0)
(0.000477800006751 4.1835596988e-05 0)
(0.00043708898908 3.33527559886e-05 0)
(0.000403895486928 2.69217504217e-05 0)
(0.000376647752479 2.19384943981e-05 0)
(0.000354162120227 1.79999846229e-05 0)
(0.000335541024449 1.4831187184e-05 0)
(0.000320097338821 1.2240028012e-05 0)
(0.000307299671059 1.00893295535e-05 0)
(0.000296733087113 8.27900940954e-06 0)
(0.000288070846941 6.73456830599e-06 0)
(0.000281053917073 5.39949506274e-06 0)
(0.000275475975985 4.23015542902e-06 0)
(0.000271172321693 3.19228578123e-06 0)
(0.000268011576406 2.25854334557e-06 0)
(0.000265889417201 1.40676485194e-06 0)
(0.000264723790522 6.18708840305e-07 0)
(0.000264451225103 -1.20865799443e-07 0)
(0.000265023965438 -8.24882470258e-07 0)
(0.000266407721896 -1.50445546163e-06 0)
(0.00026857988762 -2.1692754431e-06 0)
(0.000271528108869 -2.82789929398e-06 0)
(0.000275249117879 -3.48796260872e-06 0)
(0.000279747753888 -4.1563293913e-06 0)
(0.000285036108996 -4.83918740706e-06 0)
(0.000291132741704 -5.54209337442e-06 0)
(0.000298061903582 -6.26996895679e-06 0)
(0.000305852724344 -7.02704605796e-06 0)
(0.00031453829857 -7.81675814557e-06 0)
(0.000324154614134 -8.64157337404e-06 0)
(0.000334739259224 -9.50276542264e-06 0)
(0.000346329843141 -1.04001197051e-05 0)
(0.00035896206782 -1.13315765361e-05 0)
(0.000372667394747 -1.22928196857e-05 0)
(0.000387470268881 -1.32768290759e-05 0)
(0.00040338489051 -1.42734303956e-05 0)
(0.000420411570583 -1.52688913757e-05 0)
(0.000438532766118 -1.62456322285e-05 0)
(0.000457708967741 -1.71821320788e-05 0)
(0.000477874694041 -1.80531178604e-05 0)
(0.000498934923666 -1.88301095954e-05 0)
(0.000520762346221 -1.94823598319e-05 0)
(0.000543195814155 -1.99781636036e-05 0)
(0.000566040310657 -2.02864360142e-05 0)
(0.000589068607073 -2.03783766112e-05 0)
(0.000612024584373 -2.0228992815e-05 0)
(0.000634627982147 -1.98182706502e-05 0)
(0.000656580182484 -1.91318775476e-05 0)
(0.000677570601333 -1.81614415566e-05 0)
(0.000697283375259 -1.69046125289e-05 0)
(0.000715404260361 -1.5365195643e-05 0)
(0.000731627912143 -1.35536238171e-05 0)
(0.000745665901359 -1.14879391599e-05 0)
(0.000757255877075 -9.19529117921e-06 0)
(0.000766172107717 -6.71360889894e-06 0)
(0.000772237032386 -4.09251956269e-06 0)
(0.000775332423226 -1.39219133656e-06 0)
(0.0007754077863 1.32073815652e-06 0)
(0.000772483542258 3.97956734938e-06 0)
(0.00076664773485 6.52430258087e-06 0)
(0.000758046965902 8.90661425859e-06 0)
(0.000746873927492 1.109160275e-05 0)
(0.000733354486441 1.30565230945e-05 0)
(0.000717736606366 1.47878042998e-05 0)
(0.000700282069344 1.62778977234e-05 0)
(0.000681260784784 1.75229271866e-05 0)
(0.000660946850903 1.85214484589e-05 0)
(0.000639615396402 1.92742338758e-05 0)
(0.000617539368687 1.97848114747e-05 0)
(0.000594985733897 2.0060364982e-05 0)
(0.000572210947736 2.01125500967e-05 0)
(0.000549455943864 1.99578601306e-05 0)
(0.000526941152957 1.96173584541e-05 0)
(0.000504862147878 1.91158007784e-05 0)
(0.000483386421666 1.84803226193e-05 0)
(0.0004626516078 1.7738936536e-05 0)
(0.000442765220263 1.69190775723e-05 0)
(0.000423805785003 1.60463785426e-05 0)
(0.000405825090426 1.51437783642e-05 0)
(0.000388851214118 1.42309906199e-05 0)
(0.000372891977979 1.33243015396e-05 0)
(0.000357938525752 1.24366322133e-05 0)
(0.000343968784067 1.15777874092e-05 0)
(0.000330950642165 1.07548168081e-05 0)
(0.000318844753722 9.9724270625e-06 0)
(0.000307606919854 9.23339899204e-06 0)
(0.000297190053198 8.53897970434e-06 0)
(0.000287545749898 7.88923232565e-06 0)
(0.000278625511655 7.28333576624e-06 0)
(0.00027038166674 6.71983355819e-06 0)
(0.000262768039594 6.19683491713e-06 0)
(0.000255740415703 5.71217334009e-06 0)
(0.000249256843423 5.26352894162e-06 0)
(0.000243277808624 4.84852074728e-06 0)
(0.000237766312082 4.46477474496e-06 0)
(0.00023268787399 4.10997281154e-06 0)
(0.000228010484962 3.78188691506e-06 0)
(0.000223704518572 3.47840227059e-06 0)
(0.000219742616779 3.19753251603e-06 0)
(0.000216099556472 2.9374294399e-06 0)
(0.000212752102714 2.69638940204e-06 0)
(0.000209678852023 2.47285829162e-06 0)
(0.00020686006699 2.26543671547e-06 0)
(0.000204277501708 2.07288706381e-06 0)
(0.000201914215591 1.89414421419e-06 0)
(0.000199754371293 1.72833189379e-06 0)
(0.000197783010198 1.57478720251e-06 0)
(0.000195985796473 1.43309653966e-06 0)
(0.000194348717598 1.30314731368e-06 0)
(0.000192857725758 1.18520147905e-06 0)
(0.000191498300366 1.07999940261e-06 0)
(0.000190254908199 9.88906084513e-07 0)
(0.000189110335809 9.14116619631e-07 0)
(0.000188044874539 8.58943593953e-07 0)
(0.000187035365271 8.28212854847e-07 0)
(0.000186054193023 8.28782717614e-07 0)
(0.000185068549592 8.70126234252e-07 0)
(0.000184040888479 9.64592854878e-07 0)
(0.000182933017999 1.12567619929e-06 0)
(0.000181720836049 1.35695514414e-06 0)
(0.00018042467745 1.59078444291e-06 0)
(0.00122477802637 0.000268015870833 0)
(0.00124109783973 0.000383736867489 0)
(0.00119627752767 0.000347741813563 0)
(0.0011136781581 0.000283871715927 0)
(0.00102092436197 0.000225220362843 0)
(0.000931712586338 0.000178030703899 0)
(0.000851465365041 0.00014152259332 0)
(0.00078156846248 0.000113497218202 0)
(0.000721645953557 9.18724166533e-05 0)
(0.000670666617911 7.50062806315e-05 0)
(0.000627448210156 6.16801270316e-05 0)
(0.000590868791159 5.10072629666e-05 0)
(0.000559941567791 4.23440638152e-05 0)
(0.000533829330382 3.52204337504e-05 0)
(0.000511834407454 2.92893830334e-05 0)
(0.000493380523446 2.42915198206e-05 0)
(0.000477993649293 2.00302712806e-05 0)
(0.000465284615275 1.63545752252e-05 0)
(0.000454934315467 1.31467130222e-05 0)
(0.000446681512867 1.03136770074e-05 0)
(0.000440312948732 7.78097917719e-06 0)
(0.000435655381678 5.48815958785e-06 0)
(0.000432569197568 3.38549002753e-06 0)
(0.000430943278967 1.4315279137e-06 0)
(0.000430690876492 -4.08717083606e-07 0)
(0.000431746271998 -2.16516613936e-06 0)
(0.000434062063995 -3.86371830063e-06 0)
(0.000437606941179 -5.5270524346e-06 0)
(0.000442363832817 -7.17523090995e-06 0)
(0.000448328339876 -8.82614150505e-06 0)
(0.000455507364294 -1.04958040123e-05 0)
(0.000463917861708 -1.21985569679e-05 0)
(0.000473585646955 -1.3947131921e-05 0)
(0.000484544182617 -1.57526165206e-05 0)
(0.000496833279561 -1.76243031152e-05 0)
(0.000510497635499 -1.9569416445e-05 0)
(0.000525585134235 -2.15927127832e-05 0)
(0.000542144825698 -2.3695944134e-05 0)
(0.000560224506989 -2.58771858856e-05 0)
(0.000579867829976 -2.81300357849e-05 0)
(0.000601110874471 -3.04427076768e-05 0)
(0.000623978151418 -3.2797066022e-05 0)
(0.000648478041446 -3.51676769961e-05 0)
(0.000674597733699 -3.75209870262e-05 0)
(0.000702297808895 -3.98147752774e-05 0)
(0.000731506706101 -4.19980538936e-05 0)
(0.000762115415728 -4.40115961049e-05 0)
(0.000793972834925 -4.57892424595e-05 0)
(0.000826882282027 -4.72600571563e-05 0)
(0.000860599665904 -4.83512770062e-05 0)
(0.000894833720234 -4.89918309665e-05 0)
(0.000929248533511 -4.91160478038e-05 0)
(0.000963468352502 -4.86670737554e-05 0)
(0.000997084364549 -4.75995553803e-05 0)
(0.00102966295636 -4.58813416167e-05 0)
(0.00106075489032 -4.34942887041e-05 0)
(0.00108990497513 -4.04345853556e-05 0)
(0.00111666208723 -3.67131852438e-05 0)
(0.00114058969752 -3.23568665877e-05 0)
(0.00116127725992 -2.74102243676e-05 0)
(0.0011783528847 -2.19385896408e-05 0)
(0.00119149755882 -1.60312056583e-05 0)
(0.00120046051438 -9.80280099979e-06 0)
(0.00120507403782 -3.39082966201e-06 0)
(0.00120526466036 3.05337798154e-06 0)
(0.00120105747211 9.37833968242e-06 0)
(0.0011925718777 1.54469049221e-05 0)
(0.0011800097181 2.11469066093e-05 0)
(0.00116363889474 2.63951320824e-05 0)
(0.00114377634941 3.11349344902e-05 0)
(0.00112077330572 3.53302663307e-05 0)
(0.00109500391915 3.89593052457e-05 0)
(0.00106685701838 4.20096483516e-05 0)
(0.00103672992623 4.447569511e-05 0)
(0.00100502323208 4.63580770365e-05 0)
(0.000972135546519 4.76646229637e-05 0)
(0.000938457605778 4.84120713306e-05 0)
(0.000904365568267 4.86276112263e-05 0)
(0.000870213829744 4.83494871475e-05 0)
(0.000836328014608 4.76262854974e-05 0)
(0.000802998896216 4.65149477104e-05 0)
(0.000770477880201 4.50778710322e-05 0)
(0.000738974433705 4.33796042803e-05 0)
(0.000708655551945 4.14836375984e-05 0)
(0.000679647095164 3.94496716717e-05 0)
(0.000652036647366 3.73315912942e-05 0)
(0.000625877457357 3.51762101666e-05 0)
(0.000601193012951 3.30227310693e-05 0)
(0.000577981848012 3.0902790637e-05 0)
(0.000556222263381 2.88409282244e-05 0)
(0.000535876734148 2.68553220668e-05 0)
(0.000516895861616 2.49586596125e-05 0)
(0.000499221799926 2.31590406151e-05 0)
(0.00048279114153 2.14608434133e-05 0)
(0.000467537283143 1.98655121439e-05 0)
(0.000453392316799 1.83722438341e-05 0)
(0.000440288502585 1.69785692796e-05 0)
(0.000428159383523 1.56808313347e-05 0)
(0.000416940601641 1.44745698119e-05 0)
(0.000406570469725 1.33548248882e-05 0)
(0.000396990346958 1.23163716203e-05 0)
(0.000388144859831 1.13538977536e-05 0)
(0.000379982002927 1.04621359026e-05 0)
(0.000372453147857 9.63595985404e-06 0)
(0.000365512982944 8.8704533336e-06 0)
(0.000359119401287 8.16095831115e-06 0)
(0.00035323335051 7.50310879133e-06 0)
(0.000347818653831 6.89285515437e-06 0)
(0.000342841808856 6.32648342542e-06 0)
(0.000338271767769 5.80063342719e-06 0)
(0.000334079700041 5.31231955043e-06 0)
(0.000330238736567 4.85895792618e-06 0)
(0.000326723691977 4.43840405567e-06 0)
(0.000323510759922 4.04900551756e-06 0)
(0.000320577174315 3.68967518801e-06 0)
(0.000317900828242 3.35999151292e-06 0)
(0.000315459841875 3.06033362631e-06 0)
(0.000313232072613 2.79206025781e-06 0)
(0.000311194567011 2.55774153776e-06 0)
(0.000309322969437 2.36144985467e-06 0)
(0.000307590935749 2.20910423619e-06 0)
(0.000305969668362 2.10882802338e-06 0)
(0.000304427823444 2.07118418389e-06 0)
(0.000302932297707 2.1088938185e-06 0)
(0.000301450859438 2.23492503158e-06 0)
(0.000299958322911 2.45575185804e-06 0)
(0.000298447652297 2.74973309871e-06 0)
(0.000296938309512 3.00350878722e-06 0)
(0.00122194023055 0.000221297611699 0)
(0.00125346565335 0.000382609883298 0)
(0.00125128647452 0.000395868278785 0)
(0.00121384508694 0.000355785997928 0)
(0.00115616462427 0.000303740329452 0)
(0.00109064375273 0.000254243374052 0)
(0.00102474886624 0.000211452020498 0)
(0.000962433272793 0.000175780276683 0)
(0.000905515693982 0.000146429435732 0)
(0.000854611271124 0.000122333010114 0)
(0.000809696532746 0.000102486534001 0)
(0.000770435508374 8.60412899689e-05 0)
(0.000736361422219 7.23113372405e-05 0)
(0.000706974319989 6.0752491188e-05 0)
(0.000681790952389 5.09356076922e-05 0)
(0.000660368120936 4.25220025563e-05 0)
(0.000642311634856 3.52431411048e-05 0)
(0.000627277739563 2.88846274639e-05 0)
(0.000614970836346 2.32738570181e-05 0)
(0.000605139582478 1.82705831809e-05 0)
(0.000597572484897 1.37597289526e-05 0)
(0.000592093555079 9.64590148707e-06 0)
(0.000588558291468 5.84919126402e-06 0)
(0.000586850092255 2.30194056336e-06 0)
(0.000586877114841 -1.05375307055e-06 0)
(0.000588569551954 -4.26796524604e-06 0)
(0.000591877275572 -7.38443648239e-06 0)
(0.000596767795035 -1.04417317168e-05 0)
(0.000603224467589 -1.34741157271e-05 0)
(0.000611244897093 -1.65121921903e-05 0)
(0.00062083945882 -1.95833373832e-05 0)
(0.000632029886927 -2.27119459408e-05 0)
(0.000644847858915 -2.59194958522e-05 0)
(0.000659333508038 -2.9224431828e-05 0)
(0.000675533790354 -3.26418602395e-05 0)
(0.000693500628356 -3.61830450883e-05 0)
(0.000713288748818 -3.98546937615e-05 0)
(0.000734953129849 -4.36580246081e-05 0)
(0.000758545973112 -4.75876174043e-05 0)
(0.000784113124239 -5.16300642472e-05 0)
(0.000811689880826 -5.57624645469e-05 0)
(0.000841296156912 -5.99508447708e-05 0)
(0.000872931019416 -6.41486316613e-05 0)
(0.00090656667916 -6.82953634987e-05 0)
(0.000942142108007 -7.23158802086e-05 0)
(0.000979556561759 -7.61202754719e-05 0)
(0.00101866340644 -7.96049025521e-05 0)
(0.00105926475547 -8.26546761203e-05 0)
(0.00110110749999 -8.51467851777e-05 0)
(0.00114388132099 -8.69557221865e-05 0)
(0.00118721917975 -8.79592655969e-05 0)
(0.00123070057713 -8.80447891832e-05 0)
(0.0012738575707 -8.71151092846e-05 0)
(0.00131618320098 -8.50931260282e-05 0)
(0.00135714170691 -8.1924832764e-05 0)
(0.00139617982167 -7.75808113868e-05 0)
(0.00143273859826 -7.2056891205e-05 0)
(0.00146626556193 -6.53749254038e-05 0)
(0.00149622734368 -5.75844928579e-05 0)
(0.00152212316869 -4.87659650084e-05 0)
(0.00154349968188 -3.90349723494e-05 0)
(0.00155996757155 -2.85473784951e-05 0)
(0.00157121984252 -1.75018530834e-05 0)
(0.00157704991074 -6.13537429965e-06 0)
(0.00157736566025 5.29153893343e-06 0)
(0.00157219509221 1.65179169701e-05 0)
(0.00156168124002 2.73067500477e-05 0)
(0.00154606755493 3.74628761657e-05 0)
(0.00152567790426 4.68396012482e-05 0)
(0.00150089614508 5.53347298837e-05 0)
(0.00147214878689 6.28808290597e-05 0)
(0.00143989183959 6.94350297661e-05 0)
(0.00140460116384 7.49714518696e-05 0)
(0.0013667650215 7.94770766573e-05 0)
(0.00132687755575 8.29508058401e-05 0)
(0.00128543213868 8.54049478396e-05 0)
(0.00124291388404 8.68678940716e-05 0)
(0.00119979117808 8.73864858391e-05 0)
(0.00115650666768 8.70268173395e-05 0)
(0.00111346853275 8.58728634697e-05 0)
(0.00107104295641 8.40230249453e-05 0)
(0.00102954853647 8.15851926769e-05 0)
(0.000989253067564 7.86711634132e-05 0)
(0.000950372774844 7.53912207442e-05 0)
(0.000913073780418 7.18495098753e-05 0)
(0.000877475379666 6.81405740297e-05 0)
(0.000843654607276 6.43471643472e-05 0)
(0.000811651568886 6.0539236207e-05 0)
(0.000781475074831 5.67739228891e-05 0)
(0.000753108207604 5.30962279727e-05 0)
(0.00072651355892 4.95401819988e-05 0)
(0.000701637969116 4.61302452809e-05 0)
(0.000678416681961 4.28827884462e-05 0)
(0.000656776889044 3.98075328329e-05 0)
(0.000636640680527 3.69088767529e-05 0)
(0.000617927446078 3.41870682406e-05 0)
(0.00060055578461 3.16392097932e-05 0)
(0.000584444987409 2.9260097262e-05 0)
(0.000569516159206 2.70429050199e-05 0)
(0.000555693037865 2.4979734796e-05 0)
(0.00054290256748 2.30620474744e-05 0)
(0.000531075272728 2.12809970845e-05 0)
(0.000520145475289 1.9627684866e-05 0)
(0.000510051386342 1.80933494568e-05 0)
(0.000500735102925 1.66695071618e-05 0)
(0.000492142530366 1.53480543109e-05 0)
(0.000484223248106 1.4121341909e-05 0)
(0.00047693033201 1.29822313258e-05 0)
(0.000470220142578 1.19241385671e-05 0)
(0.00046405208537 1.09410738483e-05 0)
(0.0004583883472 1.00276826201e-05 0)
(0.000453193609446 9.17929397355e-06 0)
(0.000448434737864 8.39198233338e-06 0)
(0.000444080446978 7.66264857074e-06 0)
(0.000440100936404 6.98912691354e-06 0)
(0.000436467496904 6.3703241402e-06 0)
(0.000433152086291 5.80639691652e-06 0)
(0.000430126880784 5.2989708094e-06 0)
(0.000427363818323 4.85139824536e-06 0)
(0.000424834170322 4.46903803451e-06 0)
(0.000422508213166 4.15950634521e-06 0)
(0.000420355128893 3.93277719471e-06 0)
(0.000418343356725 3.80085197524e-06 0)
(0.000416441747899 3.77636083424e-06 0)
(0.000414622010215 3.86863465931e-06 0)
(0.000412862773455 4.07381656512e-06 0)
(0.000411153803791 4.35130981968e-06 0)
(0.000409490467978 4.57461161064e-06 0)
(0.00121696077369 0.000182396605007 0)
(0.00124922410047 0.000357722132492 0)
(0.00126602312076 0.000406136177262 0)
(0.00125654089116 0.00039244170572 0)
(0.00122654845792 0.000354757506376 0)
(0.00118434966583 0.000310945849307 0)
(0.00113648726826 0.000268506817754 0)
(0.00108732970642 0.000230198623228 0)
(0.00103955867641 0.000196699686619 0)
(0.000994700896137 0.000167824951121 0)
(0.000953536767391 0.000143073449049 0)
(0.000916382921019 0.000121869234779 0)
(0.000883278617323 0.000103661771594 0)
(0.000854105432265 8.79623336442e-05 0)
(0.000828662574671 7.43519801784e-05 0)
(0.000806713374155 6.24776520298e-05 0)
(0.000788013319383 5.2044022738e-05 0)
(0.00077232642964 4.28045214069e-05 0)
(0.000759434333519 3.45529532617e-05 0)
(0.000749140849286 2.71162162176e-05 0)
(0.000741273839341 2.034819498e-05 0)
(0.000735685454761 1.41247417781e-05 0)
(0.000732251466411 8.33959526598e-06 0)
(0.000730870111613 2.90108334372e-06 0)
(0.000731460715386 -2.2705289703e-06 0)
(0.000733962232426 -7.24514975938e-06 0)
(0.000738331793172 -1.2084542059e-05 0)
(0.000744543295275 -1.6843652862e-05 0)
(0.00075258604272 -2.15716191313e-05 0)
(0.000762463416852 -2.63124963242e-05 0)
(0.000774191551835 -3.11057331712e-05 0)
(0.000787797975156 -3.59864040536e-05 0)
(0.000803320163952 -4.09852002086e-05 0)
(0.000820803959272 -4.61281727567e-05 0)
(0.000840301772173 -5.14362144663e-05 0)
(0.000861870508156 -5.69242638217e-05 0)
(0.00088556913024 -6.26002155196e-05 0)
(0.000911455777093 -6.84635275805e-05 0)
(0.000939584352828 -7.45035291047e-05 0)
(0.000970000511627 -8.06974568994e-05 0)
(0.0010027369766 -8.70082865565e-05 0)
(0.0010378081621 -9.33824760292e-05 0)
(0.00107520411647 -9.97478074655e-05 0)
(0.0011148838724 -0.000106011591965 0)
(0.00115676838664 -0.000112059581724 0)
(0.00120073336925 -0.000117755995443 0)
(0.00124660243628 -0.00012294507754 0)
(0.00129414114985 -0.000127454545029 0)
(0.00134305260727 -0.000131101097504 0)
(0.00139297526462 -0.000133697865522 0)
(0.00144348359038 -0.000135063282149 0)
(0.00149409191537 -0.000135030468584 0)
(0.0015442614874 -0.000133455967546 0)
(0.00159341031692 -0.000130226698531 0)
(0.0016409250403 -0.00012526446002 0)
(0.00168617388949 -0.000118528118791 0)
(0.00172852005334 -0.000110014496109 0)
(0.0017673351786 -9.97593834775e-05 0)
(0.00180201321596 -8.78398311912e-05 0)
(0.00183198504446 -7.43782616838e-05 0)
(0.00185673446116 -5.95485921034e-05 0)
(0.0018758163812 -4.35835606039e-05 0)
(0.00188887770684 -2.67792656958e-05 0)
(0.00189567910086 -9.48942807966e-06 0)
(0.00189611266697 7.8962669438e-06 0)
(0.00189020941374 2.49869942821e-05 0)
(0.00187813315176 4.14277654752e-05 0)
(0.00186016245995 5.69262111216e-05 0)
(0.00183666639365 7.12619522285e-05 0)
(0.00180808052766 8.42799692301e-05 0)
(0.00177488760809 9.58758296618e-05 0)
(0.00173760359192 0.000105980952802 0)
(0.00169676766396 0.000114552091605 0)
(0.00165293446513 0.000121565736861 0)
(0.00160666709901 0.000127016936726 0)
(0.00155852974346 0.000130921549817 0)
(0.00150907905929 0.000133320192639 0)
(0.00145885426012 0.000134281655976 0)
(0.00140836644891 0.000133903934471 0)
(0.00135808828569 0.000132312012354 0)
(0.00130844510858 0.000129652599679 0)
(0.00125980837891 0.000126086740015 0)
(0.00121249191947 0.000121781519144 0)
(0.00116675099616 0.000116902057929 0)
(0.00112278395068 0.000111604691553 0)
(0.00108073586978 0.000106031854894 0)
(0.00104070368421 0.000100308824121 0)
(0.00100274210233 9.45421810392e-05 0)
(0.000966869864431 8.88196958405e-05 0)
(0.000933075917441 8.32112564374e-05 0)
(0.000901325227478 7.77704806175e-05 0)
(0.000871564053969 7.25366995277e-05 0)
(0.000843724594495 6.75370713907e-05 0)
(0.000817728973455 6.27886553177e-05 0)
(0.000793492591739 5.83003367975e-05 0)
(0.00077092688228 5.40745451457e-05 0)
(0.000749941531738 5.01087386193e-05 0)
(0.000730446234884 4.63966568295e-05 0)
(0.000712352048602 4.29293548437e-05 0)
(0.000695572408902 3.96960414394e-05 0)
(0.000680023868653 3.66847473681e-05 0)
(0.000665626607023 3.3882849916e-05 0)
(0.000652304754582 3.12774786641e-05 0)
(0.000639986571242 2.88558250683e-05 0)
(0.00062860450787 2.66053758061e-05 0)
(0.000618095176682 2.45140871961e-05 0)
(0.0006083992505 2.25705155375e-05 0)
(0.000599461306517 2.07639161134e-05 0)
(0.000591229626459 1.90843218453e-05 0)
(0.000583655961793 1.75226112368e-05 0)
(0.000576695269962 1.60705742194e-05 0)
(0.000570305425432 1.47209838189e-05 0)
(0.000564446907769 1.34676810476e-05 0)
(0.000559082467967 1.23056799918e-05 0)
(0.000554176774191 1.12312994061e-05 0)
(0.000549696039202 1.02423257968e-05 0)
(0.000545607634709 9.33821010577e-06 0)
(0.000541879703511 8.520294131e-06 0)
(0.000538480789991 7.79205076886e-06 0)
(0.000535379524992 7.15929842979e-06 0)
(0.000532544424515 6.63030357621e-06 0)
(0.000529943894397 6.21559446163e-06 0)
(0.00052754657223 5.92712934285e-06 0)
(0.000525322162694 5.77610242524e-06 0)
(0.000523242846887 5.76794752337e-06 0)
(0.000521284857536 5.89173103252e-06 0)
(0.000519427924636 6.09929912612e-06 0)
(0.000517646011555 6.27187214387e-06 0)
(0.00121289055672 0.000152545271837 0)
(0.00124193252551 0.00032626816136 0)
(0.00126630936313 0.000396414278596 0)
(0.0012730707077 0.000404884477524 0)
(0.00126246136932 0.000382916494028 0)
(0.00123911051571 0.000348336494907 0)
(0.00120784446297 0.000310244609913 0)
(0.00117248706427 0.000272975779099 0)
(0.00113576689754 0.000238413715036 0)
(0.00109951977874 0.000207215809433 0)
(0.00106492245443 0.000179444031551 0)
(0.00103268781981 0.000154887121149 0)
(0.00100321209541 0.000133223901315 0)
(0.000976680849253 0.000114104623267 0)
(0.000953143511461 9.71898742105e-05 0)
(0.000932564909731 8.21675486647e-05 0)
(0.000914860462135 6.87586170589e-05 0)
(0.000899919920469 5.67173472654e-05 0)
(0.000887623173678 4.58289592831e-05 0)
(0.000877850588429 3.59062688599e-05 0)
(0.000870489617132 2.67861129934e-05 0)
(0.000865438873104 1.83259420342e-05 0)
(0.000862610499451 1.04007469416e-05 0)
(0.000861931397418 2.90037871154e-06 0)
(0.000863343698347 -4.27273852445e-06 0)
(0.000866804731221 -1.12054992769e-05 0)
(0.000872286661438 -1.79756923154e-05 0)
(0.000879775912247 -2.46532639539e-05 0)
(0.000889272422632 -3.1301273907e-05 0)
(0.000900788771341 -3.79765719946e-05 0)
(0.000914349173213 -4.47302014935e-05 0)
(0.000929988334153 -5.1607526621e-05 0)
(0.0009477501353 -5.86480736605e-05 0)
(0.000967686103486 -6.58850682814e-05 0)
(0.000989853613353 -7.33446465151e-05 0)
(0.00101431375617 -8.10447146478e-05 0)
(0.00104112880179 -8.89934356741e-05 0)
(0.00107035917418 -9.71873290579e-05 0)
(0.00110205985875 -0.000105608989361 0)
(0.00113627616412 -0.000114224461176 0)
(0.00117303877416 -0.00012298035649 0)
(0.00121235805353 -0.000131800868883 0)
(0.00125421761554 -0.000140584927525 0)
(0.001298567231 -0.00014920383831 0)
(0.00134531525526 -0.000157499867226 0)
(0.00139432087892 -0.000165286307799 0)
(0.00144538665988 -0.000172349602842 0)
(0.00149825195209 -0.000178454013145 0)
(0.00155258797693 -0.000183349097156 0)
(0.0016079953363 -0.000186779865908 0)
(0.00166400468855 -0.000188498940897 0)
(0.00172008105647 -0.000188279481734 0)
(0.00177563180936 -0.000185927256347 0)
(0.00183001782706 -0.000181290232354 0)
(0.00188256686596 -0.000174264662728 0)
(0.00193258793349 -0.000164797806607 0)
(0.00197938573026 -0.000152888743122 0)
(0.00202227487625 -0.000138589383353 0)
(0.00206059426236 -0.000122007232978 0)
(0.0020937220598 -0.000103310467652 0)
(0.0021210920514 -8.27357808459e-05 0)
(0.00214221269081 -6.0598923072e-05 0)
(0.00215669050201 -3.73030376695e-05 0)
(0.00216425645809 -1.3333009863e-05 0)
(0.00216478865913 1.07740718401e-05 0)
(0.00215832238341 3.44787027768e-05 0)
(0.00214504256263 5.72921187977e-05 0)
(0.00212526102457 7.88140619458e-05 0)
(0.00209938653688 9.87446256332e-05 0)
(0.00206789670497 0.0001168729608 0)
(0.00203131700658 0.000133055420929 0)
(0.00199020699208 0.000147195355847 0)
(0.0019451509757 0.000159229596196 0)
(0.00189675081329 0.000169121557215 0)
(0.00184561920888 0.000176860051641 0)
(0.0017923722379 0.00018246272766 0)
(0.00173762008319 0.000185981821741 0)
(0.0016819558423 0.000187509037065 0)
(0.00162594325359 0.000187176925648 0)
(0.00157010474531 0.000185155667287 0)
(0.00151491121014 0.000181645633905 0)
(0.00146077453286 0.000176867091835 0)
(0.00140804337682 0.000171048764044 0)
(0.00135700222752 0.000164416868891 0)
(0.00130787329689 0.000157185841852 0)
(0.00126082065643 0.00014955141283 0)
(0.00121595588773 0.000141686208912 0)
(0.001173344579 0.00013373767675 0)
(0.00113301310788 0.000125827900286 0)
(0.00109495528899 0.000118054810135 0)
(0.00105913859949 0.00011049429963 0)
(0.00102550981117 0.000103202836447 0)
(0.000993999946493 9.62202534871e-05 0)
(0.000964528540035 8.9572496235e-05 0)
(0.000937007229563 8.32741841596e-05 0)