/*--------------------------------*- C++ -*----------------------------------*\
  =========                 |
  \\      /  F ield         | OpenFOAM: The Open Source CFD Toolbox
   \\    /   O peration     | Website:  https://openfoam.org
    \\  /    A nd           | Version:  7
     \\/     M anipulation  |
\*---------------------------------------------------------------------------*/
FoamFile
{
    version     2.0;
    format      ascii;
    class       volScalarField;
    location    "1800";
    object      p;
}
// * * * * * * * * * * * * * * * * * * * * * * * * * * * * * * * * * * * * * //

dimensions      [0 2 -2 0 0 0 0];

internalField   nonuniform List<scalar> 
8192
(
0.00061181821816
0.000440274324755
0.000354673553219
0.000310581223053
0.000285579816892
0.000270366026546
0.000260520236894
0.000253797010384
0.000248989071536
0.000245412308807
0.00024265944755
0.000240476740249
0.000238699508436
0.000237216991669
0.000235952371664
0.000234850962279
0.000233872962289
0.000232988851985
0.000232176375386
0.000231418504382
0.000230702029199
0.00023001655907
0.000229353797998
0.000228707008737
0.000228070607694
0.000227439851934
0.000226810591372
0.000226179066756
0.000225541739578
0.000224895144083
0.000224235752792
0.000223559848709
0.000222863398944
0.000222141925374
0.000221390368647
0.000220602942602
0.000219772976928
0.000218892747135
0.000217953292188
0.000216944222502
0.000215853523506
0.000214667364013
0.000213369922977
0.000211943254097
0.000210367213535
0.000208619482309
0.000206675719283
0.000204509882817
0.00020209475577
0.000199402699415
0.000196406644572
0.000193081305172
0.000189404571655
0.000185359015032
0.000180933409216
0.000176124163225
0.000170936542517
0.000165385550234
0.000159496334188
0.000153303997047
0.000146852729303
0.000140194269513
0.000133385810826
0.000126487584398
0.000119560412467
0.00011266351302
0.000105852757434
9.91794491772e-05
9.26895847705e-05
8.64234939094e-05
8.04157219977e-05
7.46950289436e-05
6.92844115157e-05
6.42011027097e-05
5.94565481448e-05
5.50564005378e-05
5.10005975106e-05
4.72835913195e-05
4.38947782147e-05
4.08191390828e-05
3.80380611675e-05
3.55302777171e-05
3.32728443845e-05
3.12420724037e-05
2.94143532772e-05
2.77668334075e-05
2.62779210554e-05
2.49276291297e-05
2.36977713653e-05
2.25720377748e-05
2.15359773875e-05
2.05769152553e-05
1.968382683e-05
1.88471885625e-05
1.80588187896e-05
1.73117190706e-05
1.65999225927e-05
1.59183537344e-05
1.52627008331e-05
1.46293028749e-05
1.40150498799e-05
1.34172961728e-05
1.28337854431e-05
1.22625862784e-05
1.17020369222e-05
1.11506979175e-05
1.06073115422e-05
1.00707668712e-05
9.54006963465e-06
9.01431595338e-06
8.49266943805e-06
7.97434104929e-06
7.45857163432e-06
6.94461705725e-06
6.43173661741e-06
5.91918580586e-06
5.40621592157e-06
4.89208455661e-06
4.37608451762e-06
3.85760398699e-06
3.33624143558e-06
2.81201801552e-06
2.28576958899e-06
1.75988164966e-06
1.23971491571e-06
7.36525967092e-07
2.74648118702e-07
-2.45832510447e-08
0.000462898612754
0.000399390695578
0.000349714990388
0.000317081328612
0.000295178752896
0.000280015084749
0.000269210636193
0.000261300062033
0.000255357956462
0.000250785946909
0.000247188064846
0.000244296254756
0.000241925025459
0.000239943326878
0.000238256768983
0.000236796152892
0.000235509922342
0.000234359094862
0.000233313790878
0.000232350811792
0.000231451919243
0.000230602591207
0.000229791107613
0.000229007867021
0.000228244867328
0.000227495304099
0.000226753253832
0.000226013418222
0.000225270912327
0.000224521084761
0.000223759359417
0.000222981090787
0.000222181426997
0.000221355175794
0.000220496669676
0.000219599627324
0.000218657009412
0.000217660868113
0.000216602190921
0.000215470741443
0.000214254902051
0.000212941526522
0.000211515814364
0.000209961223081
0.000208259439102
0.000206390432826
0.000204332626323
0.000202063203507
0.000199558589462
0.000196795117784
0.000193749890511
0.000190401816051
0.000186732787629
0.000182728942894
0.000178381926811
0.000173690067976
0.000168659370376
0.000163304217403
0.000157647681618
0.000151721341884
0.000145564541701
0.000139223090338
0.000132747502792
0.000126190967822
0.000119607285521
0.000113049006287
0.000106565941006
0.000100204093522
9.40049823287e-05
8.80052742937e-05
8.223662177e-05
7.67256049908e-05
7.149370782e-05
6.65572901916e-05
6.1927556622e-05
5.76105523234e-05
5.36072380062e-05
4.99136970992e-05
4.65215123159e-05
4.34183190503e-05
4.05885092905e-05
3.80140331764e-05
3.56752312935e-05
3.35516321266e-05
3.16226614014e-05
2.98682291664e-05
2.8269179787e-05
2.68076068363e-05
2.54670462122e-05
2.42325675372e-05
2.30907858921e-05
2.20298153461e-05
2.10391829875e-05
2.01097189634e-05
1.92334344129e-05
1.84033961255e-05
1.76136039591e-05
1.6858874982e-05
1.61347366043e-05
1.54373298098e-05
1.47633227451e-05
1.41098343725e-05
1.34743675674e-05
1.2854750816e-05
1.22490876424e-05
1.16557128104e-05
1.10731544755e-05
1.0500101432e-05
9.93537481385e-06
9.37790359297e-06
8.82670350678e-06
8.2808590578e-06
7.73950862389e-06
7.20183283192e-06
6.66704696795e-06
6.13439860862e-06
5.60317280647e-06
5.07270836383e-06
4.54243119224e-06
4.01191404391e-06
3.48097782522e-06
2.94985872757e-06
2.41948115013e-06
1.89190310124e-06
1.37104874392e-06
8.63964811007e-07
3.82485216297e-07
2.28904210021e-08
0.000379935579226
0.000357276289835
0.000331297860468
0.000310077456024
0.000293974961838
0.000281680063798
0.000272172635143
0.000264724721368
0.000258814183974
0.000254061821516
0.000250189404107
0.000246990988771
0.000244312850927
0.000242039256098
0.000240082298106
0.000238374602359
0.000236864057472
0.000235509986845
0.000234280345778
0.000233149652083
0.000232097444206
0.000231107121115
0.000230165060387
0.000229259940363
0.000228382212976
0.000227523688343
0.000226677202798
0.000225836348107
0.00022499524645
0.000224148360269
0.000223290326357
0.000222415806549
0.000221519349467
0.000220595258764
0.00021963746419
0.000218639392883
0.000217593839033
0.000216492831323
0.000215327498585
0.000214087935899
0.000212763075159
0.000211340566833
0.000209806682503
0.000208146251588
0.000206342649328
0.000204377857245
0.000202232620062
0.000199886724608
0.00019731942392
0.000194510023557
0.00019143863474
0.000188087082134
0.000184439933179
0.000180485596398
0.000176217420059
0.000171634714086
0.000166743613338
0.000161557696878
0.000156098271408
0.000150394226922
0.000144481393426
0.000138401386915
0.000132200024788
0.00012592548701
0.000119626453466
0.000113350437096
0.00010714247561
0.00010104421232
9.50933199484e-05
8.93231964126e-05
8.37628284762e-05
7.84367367054e-05
7.33649405098e-05
6.85629134161e-05
6.40415301028e-05
5.98070360759e-05
5.58610891831e-05
5.22009248827e-05
4.88196805654e-05
4.57068855471e-05
4.28490906429e-05
4.02305865814e-05
3.78341483939e-05
3.56417458815e-05
3.36351729559e-05
3.17965670826e-05
3.01088075664e-05
2.85557961238e-05
2.71226324427e-05
2.57957026674e-05
2.45626998357e-05
2.34125944556e-05
2.23355708308e-05
2.13229420097e-05
2.03670532018e-05
1.94611810142e-05
1.85994336088e-05
1.77766551945e-05
1.69883369254e-05
1.62305352991e-05
1.54997984871e-05
1.4793100508e-05
1.41077829304e-05
1.34415035132e-05
1.27921912232e-05
1.21580068972e-05
1.1537308999e-05
1.09286237778e-05
1.03306194148e-05
9.74208360424e-06
9.16190437073e-06
8.58905379805e-06
8.02257478821e-06
7.46157090204e-06
6.90519992073e-06
6.35267185497e-06
5.8032529928e-06
5.25627801124e-06
4.711173585e-06
4.16749810272e-06
3.6250046428e-06
3.08373724298e-06
2.54417582809e-06
2.00745207155e-06
1.4756668011e-06
9.52274562623e-07
4.41812830472e-07
3.59723386404e-08
0.000335364677433
0.000326986925689
0.000312807130318
0.000299028049422
0.000287612253042
0.00027834836343
0.000270783411112
0.000264549087443
0.000259367260296
0.00025502538626
0.000251357715775
0.000248233174736
0.000245547285575
0.000243216391394
0.000241173292111
0.000239363844432
0.00023774427736
0.00023627906361
0.000234939230571
0.000233701019863
0.000232544822753
0.000231454333019
0.000230415870634
0.00022941783929
0.000228450288538
0.000227504557537
0.000226572982842
0.00022564865374
0.000224725205608
0.000223796643568
0.000222857187273
0.000221901130866
0.000220922713817
0.000219915998796
0.000218874753475
0.00021779233395
0.000216661568147
0.000215474638492
0.000214222964027
0.000212897083545
0.000211486542806
0.00020997979112
0.000208364095086
0.000206625480608
0.000204748717845
0.000202717367792
0.000200513912533
0.000198119993435
0.000195516780787
0.000192685493418
0.000189608075943
0.000186268024814
0.000182651333631
0.000178747508091
0.000174550586009
0.000170060091721
0.000165281853403
0.00016022860928
0.0001549203172
0.000149384069056
0.000143653519475
0.000137767794118
0.000131769947484
0.000125705156072
0.000119618899514
0.000113555366201
0.000107556260449
0.000101660015144
9.59013356969e-05
9.03109976762e-05
8.49157817211e-05
7.97384593268e-05
7.47977723686e-05
7.0108380109e-05
6.56807787639e-05
6.15212291234e-05
5.76317486089e-05
5.40102270652e-05
5.06507070333e-05
4.75438361317e-05
4.4677462941e-05
4.20373210928e-05
3.96077352498e-05
3.73722879061e-05
3.53144016762e-05
3.34178117906e-05
3.16669217024e-05
3.00470484774e-05
2.85445727064e-05
2.71470112849e-05
2.58430314424e-05
2.46224226799e-05
2.34760404517e-05
2.23957325907e-05
2.13742566992e-05
2.04051944916e-05
1.94828671657e-05
1.86022544972e-05
1.77589192541e-05
1.69489377845e-05
1.61688370811e-05
1.54155382721e-05
1.46863062599e-05
1.39787050823e-05
1.32905585222e-05
1.26199154384e-05
1.19650193417e-05
1.13242817233e-05
1.06962587514e-05
1.00796309446e-05
9.47318558544e-06
8.87580163815e-06
8.28643713092e-06
7.70411899543e-06
7.12793561378e-06
6.55703241944e-06
5.9906112737e-06
5.42793458103e-06
4.86833573084e-06
4.31123807984e-06
3.75618598709e-06
3.20289313818e-06
2.65131610509e-06
2.10176217127e-06
1.55502344266e-06
1.01239982526e-06
4.74855539814e-07
3.81643152305e-08
0.000307728628735
0.000305771717429
0.000297983896678
0.000288801671287
0.000280529870733
0.000273505729049
0.000267572207769
0.000262523978997
0.00025819271481
0.000254448755099
0.000251190847724
0.000248337754435
0.000245822854782
0.000243590768335
0.000241595121024
0.000239796938379
0.000238163399069
0.000236666818612
0.000235283799228
0.000233994511426
0.000232782085544
0.000231632096866
0.000230532130503
0.000229471413874
0.000228440505938
0.000227431033603
0.000226435468033
0.00022544692958
0.000224459019059
0.000223465671112
0.000222461022054
0.000221439288869
0.000220394656494
0.000219321170557
0.000218212633199
0.000217062500095
0.000215863777268
0.000214608916896
0.00021328971201
0.000211897191019
0.000210421514217
0.000208851876279
0.000207176421028
0.000205382177817
0.000203455032531
0.000201379750514
0.000199140072955
0.000196718911723
0.000194098668535
0.000191261700895
0.000188190947251
0.000184870706801
0.000181287546778
0.00017743128753
0.000173296000065
0.000168880947329
0.00016419140522
0.000159239299624
0.000154043577604
0.000148630199825
0.00014303163043
0.000137285754825
0.000131434285208
0.0001255208674
0.000119589192049
0.00011368138792
0.000107836903838
0.00010209184741
9.64786623847e-05
9.10260520409e-05
8.57590092224e-05
8.06988623335e-05
7.58632815553e-05
7.12662211711e-05
6.69178063866e-05
6.28242079219e-05
5.89875738561e-05
5.54060924695e-05
5.20742369969e-05
4.89832020229e-05
4.61214973043e-05
4.34756339016e-05
4.10308270529e-05
3.87716492654e-05
3.6682587702e-05
3.47484836571e-05
3.29548519018e-05
3.12880913122e-05
2.97356051205e-05
2.82858510964e-05
2.69283406255e-05
2.5653602828e-05
2.44531264812e-05
2.33192893678e-05
2.22452819505e-05
2.12250301321e-05
2.0253120215e-05
1.93247279742e-05
1.8435552914e-05
1.75817581737e-05
1.67599161784e-05
1.59669598512e-05
1.52001390834e-05
1.44569820398e-05
1.37352608804e-05
1.30329614321e-05
1.23482564079e-05
1.16794817466e-05
1.10251157462e-05
1.03837606402e-05
9.7541263862e-06
9.13501641665e-06
8.52531523532e-06
7.92397773423e-06
7.33002026961e-06
6.74251355955e-06
6.16057770417e-06
5.58337976692e-06
5.01013480313e-06
4.4401116954e-06
3.87264609949e-06
3.30716370825e-06
2.74321710611e-06
2.18053268873e-06
1.61902836068e-06
1.05862161121e-06
4.98274688565e-07
3.86339772191e-08
0.000289366239363
0.000290275366889
0.000286245088214
0.000280120713812
0.000274034494469
0.000268608369521
0.000263892882019
0.0002597931007
0.000256202388202
0.000253032220092
0.00025021319817
0.000247690491051
0.000245419633156
0.000243363623809
0.000241491075967
0.000239775033232
0.00023819217507
0.000236722240639
0.000235347577821
0.000234052768858
0.000232824308039
0.000231650319018
0.000230520304925
0.000229424926975
0.00022835580821
0.000227305359304
0.000226266625365
0.000225233144717
0.000224198823388
0.000223157823788
0.00022210446043
0.000221033102203
0.00021993807945
0.000218813593948
0.000217653630118
0.000216451865999
0.000215201582787
0.000213895572087
0.000212526040488
0.000211084511824
0.000209561728427
0.000207947554257
0.000206230884827
0.000204399571815
0.00020244037407
0.000200338951541
0.00019807992397
0.00019564702125
0.000193023355279
0.000190191841553
0.000187135789519
0.0001838396624
0.000180289980959
0.000176476318357
0.000172392315298
0.000168036644545
0.000163413867622
0.000158535133468
0.000153418643301
0.000148089748356
0.000142580506173
0.00013692857138
0.000131175466219
0.000125364491384
0.000119538664284
0.000113739031025
0.00010800360133
0.000102366823689
9.68594180265e-05
9.15084483704e-05
8.63374660398e-05
8.13666276786e-05
7.66127342342e-05
7.20891679301e-05
6.78057379012e-05
6.37684876721e-05
5.99795531716e-05
5.64371667599e-05
5.3135873273e-05
5.00669702935e-05
4.72191289553e-05
4.45791142878e-05
4.21325145716e-05
3.9864404056e-05
3.77598912498e-05
3.58045341929e-05
3.39846268014e-05
3.2287374078e-05
3.07009795097e-05
2.92146679895e-05
2.78186645207e-05
2.65041448385e-05
2.52631699357e-05
2.4088612981e-05
2.29740843144e-05
2.19138581697e-05
2.09028032832e-05
1.99363185664e-05
1.90102743329e-05
1.81209591591e-05
1.72650321826e-05
1.64394805038e-05
1.56415812708e-05
1.4868868003e-05
1.41191007099e-05
1.33902393754e-05
1.26804204132e-05
1.19879357211e-05
1.13112140133e-05
1.06488041225e-05
9.99936002517e-06
9.36162734928e-06
8.73443118945e-06
8.11666506674e-06
7.50728095367e-06
6.90528032658e-06
6.30970635482e-06
5.71963747136e-06
5.13418286616e-06
4.55248073841e-06
3.97370045948e-06
3.39704933787e-06
2.82178144296e-06
2.24719294111e-06
1.67254665832e-06
1.09675968058e-06
5.17518441201e-07
3.94893834174e-08
0.000276475339506
0.000278615599012
0.000276830983461
0.000272822970952
0.000268342680013
0.000264107418973
0.000260306842686
0.000256935569145
0.000253936410173
0.00025124907598
0.000248822654631
0.000246616426013
0.000244597814297
0.000242740221052
0.000241021380678
0.000239422239405
0.000237926216301
0.000236518711434
0.000235186764715
0.000233918804182
0.000232704447375
0.000231534335278
0.000230399987509
0.000229293672687
0.000228208290595
0.00022713726419
0.000226074441606
0.000225014000494
0.000223950360146
0.000222878102654
0.000221791895014
0.000220686414029
0.000219556272797
0.000218395947606
0.000217199704009
0.000215961520945
0.00021467501182
0.000213333341605
0.000211929139291
0.000210454405465
0.000208900415547
0.000207257620441
0.000205515548251
0.000203662713529
0.000201686544597
0.000199573344845
0.000197308310584
0.000194875635026
0.000192258733497
0.00018944062582
0.000186404503723
0.000183134490891
0.000179616571476
0.000175839627831
0.000171796505383
0.000167485026613
0.000162908904367
0.000158078525586
0.00015301154426
0.000147733125708
0.000142275592997
0.000136677265219
0.000130980506973
0.000125229321712
0.000119467006077
0.000113734316908
0.0001080684539
0.000102502701266
9.70664518777e-05
9.17854577915e-05
8.66821035957e-05
8.17756051537e-05
7.7082084633e-05
7.26144990551e-05
6.83824324094e-05
6.43918160463e-05
6.06446928455e-05
5.71391518168e-05
5.38695202681e-05
5.08268282381e-05
4.79994865678e-05
4.53740739682e-05
4.29361209166e-05
4.06708020353e-05
3.85634868579e-05
3.6600135584e-05
3.47675524778e-05
3.30535230949e-05
3.14468650751e-05
2.993741969e-05
2.85160061131e-05
2.71743546825e-05
2.59050304255e-05
2.47013541803e-05
2.35573258059e-05
2.24675519962e-05
2.14271799396e-05
2.04318372417e-05
1.94775780546e-05
1.85608350734e-05
1.76783769328e-05
1.6827270471e-05
1.60048473336e-05
1.52086744026e-05
1.44365275807e-05
1.36863684938e-05
1.2956323725e-05
1.22446662263e-05
1.15497985981e-05
1.08702379518e-05
1.02046021084e-05
9.55159690506e-06
8.91000441702e-06
8.27867192248e-06
7.65650148619e-06
7.04244007853e-06
6.43547022825e-06
5.83460128894e-06
5.23886149428e-06
4.64729094195e-06
4.05893519024e-06
3.47283731809e-06
2.88802070402e-06
2.30343951527e-06
1.71783732695e-06
1.12938673231e-06
5.34936540035e-07
4.17744115527e-08
0.000267012348445
0.000269619872769
0.000269185649619
0.0002666610944
0.000263396899221
0.000260088673405
0.00025700228494
0.000254200359847
0.000251668814576
0.000249372265616
0.000247274473919
0.000245344270037
0.000243556197587
0.000241889593194
0.000240327448232
0.000238855457501
0.000237461319235
0.000236134246252
0.000234864629442
0.000233643803317
0.000232463877104
0.000231317606966
0.000230198293814
0.000229099697157
0.00022801595926
0.000226941536754
0.000225871137081
0.000224799655108
0.000223722112586
0.000222633604008
0.000221529240014
0.000220404091063
0.000219253130452
0.000218071175816
0.000216852828131
0.000215592407235
0.000214283882776
0.000212920799511
0.000211496195941
0.000210002515486
0.000208431509898
0.000206774135549
0.000205020444859
0.000203159477856
0.000201179163027
0.000199066242714
0.000196806246354
0.00019438354434
0.000191781524085
0.000188982934122
0.000185970435862
0.000182727380253
0.000179238786973
0.000175492456807
0.000171480115956
0.000167198499737
0.00016265033419
0.000157845221741
0.000152800401871
0.000147541203734
0.00014210083199
0.000136519137541
0.000130840344844
0.000125110176246
0.000119373087935
0.00011367022741
0.000108038477204
0.000102510318503
9.71141012345e-05
9.18745069428e-05
8.68129688067e-05
8.19479573219e-05
7.72950937207e-05
7.28670665687e-05
6.86733543704e-05
6.47198312273e-05
6.10084084138e-05
5.75368828784e-05
5.42991090319e-05
5.12855104955e-05
4.84838503707e-05
4.58801212181e-05
4.3459412589e-05
4.12066514182e-05
3.91071634121e-05
3.71470500988e-05
3.53134059672e-05
3.35944128305e-05
3.19793490494e-05
3.04585453667e-05
2.90233111471e-05
2.76658473566e-05
2.63791566289e-05
2.51569564716e-05
2.39935987654e-05
2.28839969067e-05
2.1823560854e-05
2.08081397596e-05
1.98339715624e-05
1.88976388132e-05
1.79960299789e-05
1.71263055207e-05
1.62858680919e-05
1.54723362814e-05
1.46835213895e-05
1.39174067924e-05
1.31721295046e-05
1.24459635982e-05
1.17373051792e-05
1.10446586535e-05
1.03666240463e-05
9.70188515821e-06
9.04919836755e-06
8.40738190441e-06
7.77530544576e-06
7.15187989736e-06
6.53604724537e-06
5.92677033168e-06
5.32302229025e-06
4.72377496669e-06
4.12798454635e-06
3.53456982169e-06
2.94237197609e-06
2.350070404e-06
1.75600207133e-06
1.15779759952e-06
5.51759039226e-07
4.60886030834e-08
0.000259812036364
0.00026253210032
0.000262908978245
0.000261428262703
0.000259095762904
0.000256528335399
0.000254019565606
0.000251677346275
0.000249522816336
0.000247543224879
0.00024571599733
0.000244018305022
0.000242430159289
0.000240934899671
0.000239518785637
0.00023817038762
0.000236880027568
0.000235639335514
0.000234440920152
0.000233278130851
0.000232144886646
0.000231035551758
0.000229944842401
0.000228867754116
0.000227799502336
0.000226735472956
0.00022567117562
0.000224602199201
0.000223524168745
0.000222432707019
0.000221323392934
0.000220191718908
0.000219033046372
0.000217842558584
0.000216615209864
0.000215345670201
0.000214028264089
0.000212656902277
0.000211225005024
0.000209725415465
0.000208150301886
0.000206491048334
0.000204738134311
0.000202881006791
0.000200907952048
0.000198805981475
0.00019656075523
0.00019415657984
0.000191576529015
0.000188802745961
0.000185816982591
0.00018260140676
0.000179139658751
0.000175418073197
0.000171426934836
0.000167161648666
0.000162623791056
0.000157822104564
0.00015277347214
0.000147503669957
0.000142047380794
0.000136446896805
0.000130749395681
0.000125003392902
0.000119255383795
0.000113547522303
0.000107916764183
0.000102395043061
9.70098632269e-05
9.17850132917e-05
8.67411467629e-05
8.18961572e-05
7.72653327291e-05
7.28612595031e-05
6.86934557807e-05
6.47678254189e-05
6.10861366404e-05
5.76457604195e-05
5.44398251324e-05
5.14578047217e-05
4.86864245507e-05
4.61106973082e-05
4.37149061867e-05
4.14834106027e-05
3.94012228623e-05
3.74543630535e-05
3.56300328714e-05
3.39166595282e-05
3.23038569e-05
3.07823406689e-05
2.93438229875e-05
2.79809026851e-05
2.66869601004e-05
2.54560609944e-05
2.42828711893e-05
2.31625819767e-05
2.20908455451e-05
2.1063719329e-05
2.00776181087e-05
1.91292727374e-05
1.82156944865e-05
1.73341441259e-05
1.64821049842e-05
1.56572593487e-05
1.48574676616e-05
1.4080750057e-05
1.33252698463e-05
1.25893186239e-05
1.18713026993e-05
1.11697306106e-05
1.0483201487e-05
9.8103940649e-06
9.15005616053e-06
8.50099442639e-06
7.86206420085e-06
7.2321592579e-06
6.61020118846e-06
5.99512802267e-06
5.38588136027e-06
4.78139058196e-06
4.18055115437e-06
3.58219083623e-06
2.9850111159e-06
2.38747940277e-06
1.78762983173e-06
1.18271760774e-06
5.68702640245e-07
5.28241507673e-08
0.000254177713426
0.000256849498764
0.000257709302282
0.000256963473141
0.000255346789223
0.000253378414309
0.000251347721864
0.000249387730945
0.000247545679395
0.000245828202365
0.00024422547023
0.000242722669212
0.000241304882979
0.000239958830316
0.000238673225299
0.000237438602712
0.000236246985926
0.000235091551945
0.000233966346931
0.000232866062227
0.000231785864425
0.000230721268392
0.000229668042335
0.000228622135776
0.000227579623288
0.000226536661697
0.000225489449243
0.000224434189294
0.000223367057345
0.000222284170826
0.000221181556711
0.000220055117712
0.000218900596194
0.000217713534908
0.000216489233556
0.000215222700059
0.000213908595187
0.000212541168982
0.000211114187131
0.000209620845234
0.000208053668805
0.000206404397121
0.00020466384992
0.000202821778118
0.000200866703846
0.000198785762313
0.000196564569245
0.000194187153325
0.000191636011504
0.000188892360981
0.000185936664368
0.000182749479673
0.000179312623824
0.000175610546948
0.00017163173915
0.000167370002692
0.000162825559541
0.000158006145543
0.000152928248929
0.000147618299131
0.000142113057995
0.000136458278717
0.000130705356823
0.000124906825732
0.000119112164496
0.000113365122745
0.000107703038987
0.000102157470518
9.67552123036e-05
9.15192974271e-05
8.64697457524e-05
8.16240241751e-05
7.69972471348e-05
7.26020731336e-05
6.84482294799e-05
6.45417632383e-05
6.08843016411e-05
5.74726473044e-05
5.42989202776e-05
5.13512617916e-05
4.86149322499e-05
4.60735463765e-05
4.37102083943e-05
4.15083992202e-05
3.94525686471e-05
3.75284594293e-05
3.57232262517e-05
3.40254184836e-05
3.24248848941e-05
3.09126423058e-05
2.94807349451e-05
2.81220995952e-05
2.68304437919e-05
2.5600139541e-05
2.4426132406e-05
2.33038645852e-05
2.22292101163e-05
2.11984203333e-05
2.0208077834e-05
1.92550574738e-05
1.83364931139e-05
1.74497491017e-05
1.65923956183e-05
1.57621872163e-05
1.49570439649e-05
1.41750347532e-05
1.34143623511e-05
1.26733499175e-05
1.19504286693e-05
1.12441264836e-05
1.05530572099e-05
9.87591050617e-06
9.21144200089e-06
8.55846359492e-06
7.91583367183e-06
7.2824469448e-06
6.65722352499e-06
6.03909656943e-06
5.42699737179e-06
4.81983585412e-06
4.2164726451e-06
3.61567568555e-06
3.01604856248e-06
2.41590886014e-06
1.8130844879e-06
1.20459450293e-06
5.86212391896e-07
6.22388233369e-08
0.000249674266695
0.000252229103671
0.000253370153925
0.000253141151883
0.00025207394741
0.000250591710953
0.000248961480505
0.000247325834907
0.000245749243134
0.000244253708065
0.000242840673975
0.000241502932295
0.000240230532449
0.00023901344868
0.000237842611374
0.000236710168345
0.000235609416565
0.000234534617504
0.00023348079276
0.00023244353915
0.000231418875328
0.000230403120006
0.000229392797323
0.000228384563772
0.00022737515116
0.000226361324619
0.000225339843561
0.000224307426213
0.000223260722238
0.000222196285795
0.000221110547927
0.000219999787703
0.000218860101136
0.000217687366843
0.000216477207344
0.000215224944694
0.000213925548942
0.000212573577503
0.000211163103183
0.000209687628077
0.000208139980193
0.000206512189426
0.000204795339958
0.000202979397724
0.000201053015445
0.000199003325142
0.000196815740879
0.000194473813774
0.000191959206553
0.000189251880275
0.000186330597974
0.000183173827276
0.00017976104596
0.000176074324956
0.000172099940801
0.000167829767904
0.0001632624091
0.000158404348841
0.000153271506173
0.0001478910594
0.000142302467322
0.000136556152751
0.000130709282531
0.00012481989613
0.000118941537609
0.000113120148617
0.000107393693595
0.000101793462141
9.6345647399e-05
9.10726521675e-05
8.59940030095e-05
8.11268782846e-05
7.64863650416e-05
7.20853721792e-05
6.79340255822e-05
6.40386482604e-05
6.0400725974e-05
5.70163149281e-05
5.38761792954e-05
5.0966665477e-05
4.82710681346e-05
4.57711321473e-05
4.3448381455e-05
4.12851015336e-05
3.92649410672e-05
3.73731897123e-05
3.5596825144e-05
3.39244202433e-05
3.23459809622e-05
3.08527617231e-05
2.94370854472e-05
2.80921814339e-05
2.6812045759e-05
2.55913241632e-05
2.44252152045e-05
2.33093906686e-05
2.22399302197e-05
2.12132675796e-05
2.02261459545e-05
1.92755808437e-05
1.83588287464e-05
1.74733605846e-05
1.66168389158e-05
1.57870981981e-05
1.49821275262e-05
1.42000553691e-05
1.34391359315e-05
1.2697736826e-05
1.19743277941e-05
1.1267470251e-05
1.05758074496e-05
9.89805507578e-06
9.23299207924e-06
8.57945152852e-06
7.93631122411e-06
7.30248371222e-06
6.67690515615e-06
6.05852220518e-06
5.44627541296e-06
4.83907673427e-06
4.23577682198e-06
3.63511482492e-06
3.03563863982e-06
2.43557726515e-06
1.83264154138e-06
1.22373313091e-06
6.04566829534e-07
7.44846775729e-08
0.00024601857306
0.00024843125219
0.000249728300568
0.000249861708894
0.000249215343252
0.000248127363697
0.000246834125259
0.000245476963417
0.000244129980938
0.000242826376549
0.000241576953145
0.000240381387236
0.000239234497203
0.000238129481463
0.000237059456993
0.000236018097616
0.000234999821848
0.000233999772201
0.000233013710748
0.000232037892188
0.000231068942165
0.000230103751494
0.000229139388655
0.00022817302923
0.000227201899675
0.000226223234564
0.000225234238585
0.000224232049574
0.000223213713538
0.000222176158551
0.000221116169113
0.000220030359605
0.000218915145739
0.000217766712874
0.000216580979933
0.000215353557515
0.000214079698423
0.000212754238449
0.000211371524624
0.000209925327491
0.000208408733141
0.000206814010086
0.000205132445793
0.000203354148574
0.000201467813709
0.000199460459969
0.000197317156779
0.000195020785466
0.000192551911318
0.000189888881448
0.00018700829052
0.000183885941453
0.000180498334562
0.000176824536237
0.000172848078233
0.000168558497781
0.000163952429305
0.000159034722741
0.000153820346945
0.000148337142981
0.000142627897942
0.000136749203314
0.000130766001067
0.000124743744249
0.000118741351265
0.000112807599162
0.000106981269105
0.000101293461208
9.57698958046e-05
9.04324940974e-05
8.53004469319e-05
8.03907678707e-05
7.57186291373e-05
7.12973527022e-05
6.71376601441e-05
6.32462878014e-05
5.96245526502e-05
5.62675138907e-05
5.31641208087e-05
5.02983361892e-05
4.76508738393e-05
4.52010536174e-05
4.29283709234e-05
4.08135832597e-05
3.88393058786e-05
3.69902183804e-05
3.52530157515e-05
3.36162212093e-05
3.20699444672e-05
3.06056361147e-05
2.92158640075e-05
2.78941217e-05
2.66346700369e-05
2.54324087932e-05
2.42827736844e-05
2.31816539753e-05
2.21253264023e-05
2.11104018697e-05
2.0133782068e-05
1.91926238171e-05
1.82843094132e-05
1.74064216922e-05
1.65567227951e-05
1.5733135883e-05
1.49337291926e-05
1.41567019803e-05
1.34003719727e-05
1.26631640343e-05
1.19435997941e-05
1.12402880251e-05
1.05519155761e-05
9.87723867505e-06
9.21507439929e-06
8.56429208767e-06
7.92380438545e-06
7.29255750191e-06
6.66952002586e-06
6.05366928375e-06
5.443973576e-06
4.83936758334e-06
4.23871650383e-06
3.64076183408e-06
3.04403795886e-06
2.44674446984e-06
1.84655676239e-06
1.24036238253e-06
6.23928436968e-07
8.96205113445e-08
0.000243019097286
0.000245284429082
0.000246658822246
0.000247044824686
0.000246719814761
0.000245950788641
0.000244941236051
0.000243824493072
0.00024267836489
0.000241543406284
0.000240437691585
0.000239366807815
0.000238329967671
0.000237323494372
0.00023634268745
0.000235382749792
0.000234439195718
0.000233507985792
0.000232585526752
0.00023166861186
0.000230754340992
0.000229840039753
0.000228923186088
0.000228001347139
0.000227072127705
0.000226133127861
0.000225181905565
0.000224215940699
0.000223232609636
0.000222229159557
0.000221202683384
0.000220150094082
0.000219068097135
0.000217953160009
0.000216801477241
0.000215608929589
0.000214371035294
0.000213082890946
0.000211739098727
0.000210333675818
0.000208859940589
0.000207310368939
0.000205676413092
0.000203948275049
0.000202114628996
0.000200162293578
0.000198075869666
0.000195837386197
0.000193426039319
0.0001908181653
0.000187987637683
0.000184906881984
0.000181548595585
0.000177888007979
0.000173905191781
0.000169586802476
0.000164927031916
0.000159928507182
0.000154604536993
0.000148983219298
0.000143111280195
0.000137053412317
0.000130885022127
0.000124681540575
0.00011850892914
0.000112419557996
0.000106453188452
0.000100640841501
9.50080050223e-05
8.95763341344e-05
8.43648836515e-05
7.93905886686e-05
7.46687288733e-05
7.02131389594e-05
6.60353077502e-05
6.21424950971e-05
5.85357543356e-05
5.52087711066e-05
5.21480474731e-05
4.9334387827e-05
4.67451495474e-05
4.43565606413e-05
4.21455802969e-05
4.00910882541e-05
3.81744443615e-05
3.63795862976e-05
3.46928516462e-05
3.31026725006e-05
3.15992389145e-05
3.01741835387e-05
2.88203098768e-05
2.75313691966e-05
2.63018825304e-05
2.51270008447e-05
2.40023959163e-05
2.29241751663e-05
2.18888148627e-05
2.08931072716e-05
1.99341183747e-05
1.90091535984e-05
1.81157296522e-05