/*--------------------------------*- C++ -*----------------------------------*\
  =========                 |
  \\      /  F ield         | OpenFOAM: The Open Source CFD Toolbox
   \\    /   O peration     | Website:  https://openfoam.org
    \\  /    A nd           | Version:  7
     \\/     M anipulation  |
\*---------------------------------------------------------------------------*/
FoamFile
{
    version     2.0;
    format      ascii;
    class       surfaceScalarField;
    location    "1800";
    object      phi;
}
// * * * * * * * * * * * * * * * * * * * * * * * * * * * * * * * * * * * * * //

dimensions      [0 3 -1 0 0 0 0];

internalField   nonuniform List<scalar> 
16192
(
6.92916765646e-10
2.44583229389e-10
4.93550653577e-10
1.99366107093e-10
3.64809529054e-10
1.28741120007e-10
2.82224851796e-10
8.25846743733e-11
2.27599774634e-10
5.46250763832e-11
1.89989889297e-10
3.76098863426e-11
1.63051690385e-10
2.69382014389e-11
1.43071719632e-10
1.99799746026e-11
1.27815047493e-10
1.52566771536e-11
1.1588876137e-10
1.19262921834e-11
1.06392117731e-10
9.49665067366e-12
9.87214147108e-11
7.67071099171e-12
9.24584591066e-11
6.26296451866e-12
8.73049182055e-11
5.15355078356e-12
8.30424549189e-11
4.26247419719e-12
7.95077526318e-11
3.53471429741e-12
7.65763919242e-11
2.93137391847e-12
7.41521452554e-11
2.42426118718e-12
7.21596831409e-11
1.99247807317e-12
7.05394868413e-11
1.62021383602e-12
6.92442246423e-11
1.29528147373e-12
6.82361217703e-11
1.00812405161e-12
6.74850196818e-11
7.51125361364e-13
6.69669231597e-11
5.18122085085e-13
6.66628990236e-11
3.04052206688e-13
6.65582324782e-11
1.04697353949e-13
6.66417750821e-11
-8.35088086437e-14
6.69054364403e-11
-2.63624309059e-13
6.73437845035e-11
-4.38307477772e-13
6.79537297672e-11
-6.09900836009e-13
6.87342730504e-11
-7.80494696775e-13
6.9686300183e-11
-9.51974042858e-13
7.08124095507e-11
-1.12605142848e-12
7.21167600116e-11
-1.30428729674e-12
7.36049268971e-11
-1.48809813388e-12
7.52837536895e-11
-1.67875206635e-12
7.71611856215e-11
-1.87735088163e-12
7.92460702263e-11
-2.08479687031e-12
8.1547907508e-11
-2.30174257717e-12
8.40765308318e-11
-2.5285213826e-12
8.68416973946e-11
-2.76505724552e-12
8.98525669805e-11
-3.01075281806e-12
9.31170481983e-11
-3.26435712164e-12
9.66409962646e-11
-3.52381688805e-12
1.00427254155e-10
-3.78612014933e-12
1.04474543857e-10
-4.04714609684e-12
1.08776233967e-10
-4.3015416717e-12
1.13319037034e-10
-4.54265102669e-12
1.18081718921e-10
-4.76252780416e-12
1.23033932561e-10
-4.95205922267e-12
1.28135309648e-10
-5.1012242747e-12
1.33334953733e-10
-5.19949481446e-12
1.38571468502e-10
-5.23637104016e-12
1.43773630315e-10
-5.20202542887e-12
1.48861774832e-10
-5.08801718954e-12
1.53749924512e-10
-4.88803280438e-12
1.58348632692e-10
-4.59860303317e-12
1.62568457705e-10
-4.21973261312e-12
1.66323889417e-10
-3.75535308155e-12
1.69537436034e-10
-3.21348267492e-12
1.72143464152e-10
-2.60597990905e-12
1.74091330827e-10
-1.94783512693e-12
1.75347401498e-10
-1.25605665379e-12
1.75895729352e-10
-5.48331775611e-13
1.75737424814e-10
1.58282723467e-13
1.74888986396e-10
8.48399504835e-13
1.73380021388e-10
1.5089102574e-12
1.71250780003e-10
2.12917251299e-12
1.68549828518e-10
2.70087021563e-12
1.65332057522e-10
3.21767906197e-12
1.61657076877e-10
3.67487945926e-12
1.57587939862e-10
4.06902786023e-12
1.53190070415e-10
4.39775331966e-12
1.48530245683e-10
4.65970263671e-12
1.43675502591e-10
4.85461593495e-12
1.38691892252e-10
4.98347919176e-12
1.33643081211e-10
5.04867697983e-12
1.28588878327e-10
5.05406717239e-12
1.235838215e-10
5.00492069615e-12
1.18675978338e-10
4.90770794013e-12
1.13906090807e-10
4.76975441172e-12
1.09307141751e-10
4.59881921141e-12
1.04904354344e-10
4.40266179033e-12
1.00715577481e-10
4.18865633252e-12
9.67519686347e-11
3.96349401207e-12
9.30188693802e-11
3.73299061336e-12
8.95167706282e-11
3.50199657496e-12
8.62422820022e-11
3.27439309239e-12
8.31890417763e-11
3.05315133731e-12
8.03485279776e-11
2.84043149902e-12
7.77107507174e-11
2.63770137034e-12
7.52648218677e-11
2.4458591642e-12
7.2999407984e-11
2.26535012128e-12
7.09030789677e-11
2.09627089093e-12
6.89645672729e-11
1.93845888161e-12
6.71729533332e-11
1.79156612033e-12
6.55177916669e-11
1.65511851045e-12
6.39891906947e-11
1.52856215908e-12
6.25778571929e-11
1.41129871834e-12
6.12751144353e-11
1.30271169715e-12
6.00729012526e-11
1.20218556118e-12
5.89637575995e-11
1.10911918635e-12
5.79408010089e-11
1.0229350276e-12
5.6997697016e-11
9.43085075294e-13
5.61286259917e-11
8.69054534477e-13
5.53282477859e-11
8.00363910694e-13
5.45916653533e-11
7.36570146287e-13
5.39143876149e-11
6.77267251079e-13
5.32922918417e-11
6.22086927308e-13
5.27215849056e-11
5.70699542406e-13
5.2198762875e-11
5.22815955853e-13
5.17205673161e-11
4.78190630512e-13
5.12839366834e-11
4.36626737237e-13
5.08859496425e-11
3.97984018452e-13
5.05237567091e-11
3.62190684269e-13
5.01944940881e-11
3.29260992206e-13
4.98951717649e-11
2.99321221777e-13
4.96225230042e-11
2.72648032348e-13
4.93727967133e-11
2.49725838561e-13
4.91414624915e-11
2.3133387766e-13
4.89227809916e-11
2.18681148445e-13
4.87091608923e-11
2.13619544478e-13
4.8490175403e-11
2.18984585489e-13
4.82510422409e-11
2.39131697876e-13
4.79703353203e-11
2.807048219e-13
4.76170732204e-11
3.53258206168e-13
4.71498305766e-11
4.67254908362e-13
5.99513512668e-13
9.53402174706e-10
2.2868103889e-10
8.59627309899e-10
2.93140953157e-10
7.4507009643e-10
2.43298313089e-10
6.41878133905e-10
1.85776616485e-10
5.56679707835e-10
1.39823482592e-10
4.88272731551e-10
1.06016843178e-10
4.33634963995e-10
8.15759499573e-11
3.89813272209e-10
6.38016478114e-11
3.54393659865e-10
5.06762714349e-11
3.25519130454e-10
4.08008041006e-11
3.01789857669e-10
3.32259065983e-11
2.8215342428e-10
2.73071282231e-11
2.65814113577e-10
2.2602259845e-11
2.52164600313e-10
1.88030495363e-11
2.4073632769e-10
1.5690733271e-11
2.31163885349e-10
1.31071441533e-11
2.2315943983e-10
1.09358081305e-11
2.16494268188e-10
9.08942281975e-12
2.10985296676e-10
7.50144100637e-12
2.06485180909e-10
6.12032258833e-12
2.02874912319e-10
4.90554475975e-12
2.00058245068e-10
3.824787859e-12
1.97957449667e-10
2.85191933666e-12
1.96510044622e-10
1.96552787957e-12
1.95666257328e-10
1.14784258808e-12
1.95387034422e-10
3.83925848617e-13
1.95642469914e-10
-3.38936050241e-13
1.96410552188e-10
-1.03169551351e-12
1.97676155502e-10
-1.7038967522e-12
1.99430219984e-10
-2.36394816352e-12
2.0166907333e-10
-3.01932764537e-12
2.04393855247e-10
-3.67673219905e-12
2.07610010688e-10
-4.34217965255e-12
2.11326820738e-10
-5.02106659166e-12
2.15556940619e-10
-5.71818367681e-12
2.20315913792e-10
-6.43768728816e-12
2.25621629011e-10
-7.1830245556e-12
2.31493684806e-10
-7.95680756163e-12
2.37952622555e-10
-8.76063176327e-12
2.45018987155e-10
-9.5948340755e-12
2.52712172709e-10
-1.04581877356e-11
2.61049012888e-10
-1.13475349846e-11
2.70042081485e-10
-1.22573650484e-11
2.79697682506e-10
-1.31793548897e-11
2.90013530853e-10
-1.41019035292e-11
3.00976158608e-10
-1.50097073554e-11
3.12558125918e-10
-1.58834414715e-11
3.24715170733e-10
-1.66996278457e-11
3.37383489954e-10
-1.74307791671e-11
3.50477400368e-10
-1.80459025367e-11
3.63887665922e-10
-1.85114241799e-11
3.77480790098e-10
-1.8792555446e-11
3.91099546811e-10
-1.88550669963e-11
4.04564964094e-10
-1.86673853307e-11
4.1767988614e-10
-1.82028857945e-11
4.30234135674e-10
-1.74422332596e-11
4.42011179401e-10
-1.63756024157e-11
4.52796058322e-10
-1.50045721503e-11
4.62384162812e-10
-1.33434233534e-11
4.70590219451e-10
-1.14195103819e-11
4.77256660967e-10
-9.27239795218e-12
4.82260472232e-10
-6.95162852416e-12
4.85517729703e-10
-4.51330207376e-12
4.86985399192e-10
-2.01599515474e-12
4.86660433068e-10
4.83248932443e-13
4.84576660749e-10
2.93216601168e-12
4.80800259805e-10
5.28529970836e-12
4.75424619357e-10
7.50479612464e-12
4.68565249355e-10
9.56021834903e-12
4.60355153701e-10
1.14277481671e-11
4.509408233e-10
1.30891789073e-11
4.40478795168e-10
1.45310209487e-11
4.29132587307e-10
1.57439223099e-11
4.17069766173e-10
1.67224814059e-11
4.04458927369e-10
1.74654092096e-11
3.91466464722e-10
1.79758935723e-11
3.78253139408e-10
1.82619517225e-11
3.64970603767e-10
1.83365504632e-11
3.51758136739e-10
1.82173341109e-11
3.38739882896e-10
1.79259074837e-11
3.26022844677e-10
1.74867381833e-11
3.13695779478e-10
1.69258303834e-11
3.01829028913e-10
1.6269359249e-11
2.90475193952e-10
1.55424396117e-11
2.79670486946e-10
1.47681511813e-11
2.69436552281e-10
1.39668776986e-11
2.59782544984e-10
1.31559588678e-11
2.50707283409e-10
1.23496125405e-11
2.42201332305e-10
1.15590634054e-11
2.34248918028e-10
1.07928100228e-11
2.26829618061e-10
1.00569689775e-11
2.19919800866e-10
9.35564747861e-12
2.13493815916e-10
8.69130969144e-12
2.07524950143e-10
8.06511477981e-12
2.01986175764e-10
7.47721481359e-12
1.96850718656e-10
6.92700813829e-12
1.92092476615e-10
6.41334869733e-12
1.8768631525e-10
5.93471476882e-12
1.83608266135e-10
5.48934200992e-12
1.79835648506e-10
5.07532625574e-12
1.76347132204e-10
4.690701351e-12
1.73122756309e-10
4.33349692062e-12
1.70143915002e-10
4.00178031963e-12
1.67393319526e-10
3.69368645956e-12
1.64854943147e-10
3.40743853744e-12
1.625139539e-10
3.14136227178e-12
1.6035663871e-10
2.89389573825e-12
1.58370320754e-10
2.6635966775e-12
1.56543271198e-10
2.44914883071e-12
1.54864614903e-10
2.24936885131e-12
1.53324229131e-10
2.06321523092e-12
1.51912632654e-10
1.88980090283e-12
1.5062086199e-10
1.72841132646e-12
1.49440329493e-10
1.57853038811e-12
1.48362656884e-10
1.43987696534e-12
1.47379475163e-10
1.31245601593e-12
1.46482180014e-10
1.19662917152e-12
1.45661628617e-10
1.09321157141e-12
1.44907762286e-10
1.00360353578e-12
1.44209138943e-10
9.29967670404e-13
1.43552367669e-10
8.7546185493e-13
1.42921464542e-10
8.44530961611e-13
1.42297229747e-10
8.43226430868e-13
1.41656959621e-10
8.79407455166e-13
1.40975374259e-10
9.62294019225e-13
1.40229033975e-10
1.09960084365e-12
1.39410993334e-10
1.28529878781e-12
1.45520591957e-12
9.76220374572e-10
1.89960644853e-10
9.62961543441e-10
3.06399762115e-10
9.0603000931e-10
3.00229823432e-10
8.33588855419e-10
2.58217746459e-10
7.60634135816e-10
2.12778178614e-10
6.93579416381e-10
1.7307153917e-10
6.34497914986e-10
1.4065742803e-10
5.83496355073e-10
1.1480318457e-10
5.39893567634e-10
9.42790359591e-11
5.02769578614e-10
7.79247705106e-11
4.71204123756e-10
6.4791339233e-11
4.44368397975e-10
5.41428322395e-11
4.21550474161e-10
4.54201624417e-11
4.02152729694e-10
3.82007734106e-11
3.85679005269e-10
3.21644378214e-11
3.71719344581e-10
2.70667857719e-11
3.5993553256e-10
2.27196019897e-11
3.50048539784e-10
1.89763984366e-11
3.41828064241e-10
1.57219005057e-11
3.35083998668e-10
1.28643733384e-11
3.29659538112e-10
1.03299918302e-11
3.2542563434e-10
8.05867959788e-12
3.22276535847e-10
6.00100736805e-12
3.20126194855e-10
4.11586009833e-12
3.18905363922e-10
2.36866655512e-12
3.18559240178e-10
7.30044544957e-13
3.19045544017e-10
-8.25242909612e-13
3.20332939771e-10
-2.31909216016e-12
3.22399726255e-10
-3.77068191264e-12
3.25232737807e-10
-5.19695609406e-12
3.28826402972e-10
-6.61298683684e-12
3.33181915278e-10
-8.03223612671e-12
3.38306474256e-10
-9.46672783445e-12
3.44212556785e-10
-1.0927135894e-11
3.50917178564e-10
-1.24227898409e-11
3.58441104428e-10
-1.39615951803e-11
3.6680796337e-10
-1.55498632698e-11
3.76043221622e-10
-1.71920434155e-11
3.86172963699e-10
-1.88903494329e-11
3.97222430067e-10
-2.06442741634e-11
4.09214259997e-10
-2.24499897296e-11
4.22166393523e-10
-2.42996390985e-11
4.36089596702e-10
-2.61805376066e-11
4.50984595085e-10
-2.80743216562e-11
4.66838830763e-10
-2.99561068985e-11
4.83622904013e-10
-3.17937478432e-11
5.01286818019e-10
-3.35473225983e-11
5.19756215929e-10
-3.5168993019e-11
5.38928872882e-10
-3.66034038893e-11
5.58671774894e-10
-3.77887730973e-11
5.78819161994e-10
-3.86587809779e-11
5.99171924154e-10
-3.91452887116e-11
6.19498699643e-10
-3.91818153209e-11
6.3953894105e-10
-3.87076014715e-11
6.59008090489e-10
-3.76720120614e-11
6.7760486397e-10
-3.60389856629e-11
6.95020488528e-10
-3.37912080072e-11
7.10949558965e-10
-3.09336255561e-11
7.25101956685e-10
-2.74958058707e-11
7.37215007324e-10
-2.35325474249e-11
7.4706480258e-10
-1.91221811736e-11
7.54475505104e-10
-1.43623205131e-11
7.59325610654e-10
-9.36339874436e-12
7.61550591107e-10
-4.24096846342e-12
7.61141961185e-10
8.91884086546e-13
7.58143398172e-10
5.93073240151e-12
7.52644914512e-10
1.07837849135e-11
7.44776120222e-10
1.53735902768e-11
7.34699409934e-10
1.9636926803e-11
7.22603612739e-10
2.35235418788e-11
7.08698321017e-10
2.69944653686e-11
6.93208859339e-10
3.00204755492e-11
6.76371687008e-10
3.25810855951e-11
6.58429959396e-10
3.46641980013e-11
6.39628996872e-10
3.62663586905e-11
6.2021152303e-10
3.73933524685e-11
6.00412701548e-10
3.80607564485e-11
5.80455179085e-10
3.82940546193e-11
5.60544468432e-10
3.81280251219e-11
5.40865047652e-10
3.76053076349e-11
5.21577493916e-10
3.67742705898e-11
5.02816843945e-10
3.56864587075e-11
4.84692213514e-10
3.43939680208e-11
4.67287563606e-10
3.29470682196e-11
4.50663395295e-10
3.13922988427e-11
4.34859104538e-10
2.97711487891e-11
4.19895723334e-10
2.81193216401e-11
4.05778805409e-10
2.64665135442e-11
3.92501263725e-10
2.48365898771e-11
3.80046023321e-10
2.32480371295e-11
3.68388404122e-10
2.17145769296e-11
3.57498191911e-10
2.02458506216e-11
3.47341387573e-10
1.88481072106e-11
3.37881647436e-10
1.75248503974e-11
3.290814409e-10
1.6277419134e-11
3.20902958869e-10
1.51054902372e-11
3.13308808619e-10
1.4007501246e-11
3.06262530052e-10
1.29809977827e-11
2.99728965499e-10
1.20229130611e-11
2.93674511559e-10
1.11297886111e-11
2.88067277516e-10
1.02979456007e-11
2.82877170702e-10
9.52361556178e-12
2.78075925749e-10
8.80303857574e-12
2.73637090951e-10
8.13253584388e-12
2.69535982491e-10
7.50856271364e-12
2.65749614246e-10
6.92774716126e-12
2.62256609266e-10
6.38691813558e-12
2.59037096573e-10
5.88312735889e-12
2.56072595879e-10
5.41366793407e-12
2.5334589076e-10
4.97609260219e-12
2.50840890109e-10
4.56823459948e-12
2.48542475759e-10
4.18823386149e-12
2.46436333699e-10
3.83457176534e-12
2.44508764364e-10
3.50611768665e-12
2.42746467399e-10
3.20219137023e-12
2.41136294823e-10
2.92264533368e-12
2.39664967814e-10
2.66797213003e-12
2.38318753661e-10
2.43944071736e-12
2.37083106634e-10
2.23926451822e-12
2.35942289582e-10
2.07079748696e-12
2.34879023513e-10
1.93873943125e-12
2.3387427039e-10
1.84929420141e-12
2.32907370246e-10
1.81013525078e-12
2.31956969188e-10
1.82981559836e-12
2.31003548268e-10
1.91572024921e-12
2.3003493468e-10
2.06821795969e-12
2.29055187489e-10
2.26504224013e-12
2.42384767248e-12
9.71751126348e-10
1.55709496003e-10
9.86615620442e-10
2.91535244201e-10
9.68028994419e-10
3.18816424254e-10
9.27610091709e-10
2.98636623819e-10
8.77216536311e-10
2.63171709006e-10
8.24374502457e-10
2.25913548126e-10
7.7323809966e-10
1.91793805985e-10
7.2584432076e-10
1.62196938705e-10
6.83010163687e-10
1.37113168386e-10
6.44889268266e-10
1.16045641462e-10
6.11297671691e-10
9.8382911578e-11
5.81897569563e-10
8.35429104442e-11
5.56297590697e-10
7.10201177643e-11
5.34105279927e-10
6.03930610925e-11
5.14952790716e-10
5.13169044805e-11
4.98507886319e-10
4.35116682367e-11
4.84477116498e-10
3.67503505867e-11
4.72605015823e-10
3.08484786875e-11
4.62671445118e-10
2.56554516841e-11
4.54488221743e-10
2.10475781851e-11
4.47895637012e-10
1.69225591336e-11
4.42759155135e-10
1.3195145256e-11
4.38966421892e-10
9.79372570778e-12
4.36424622452e-10
6.65764605912e-12
4.35058181989e-10
3.73509506699e-12
4.34806780652e-10
9.81435565589e-13
4.35623645113e-10
-1.64211595572e-12
4.37474072784e-10
-4.16952659042e-12
4.40334152332e-10
-6.63076631446e-12
4.44189640443e-10
-9.05244707892e-12
4.49034954566e-10
-1.1458301797e-11
4.54872243988e-10
-1.3869524304e-11
4.61710501156e-10
-1.63049816543e-11
4.69564674108e-10
-1.87813033834e-11
4.78454738718e-10
-2.13128468924e-11
4.88404686807e-10
-2.39115336472e-11
4.99441382657e-10
-2.65865474977e-11
5.11593237221e-10
-2.93438844297e-11
5.24888646234e-10
-3.21857430778e-11
5.39354137395e-10
-3.51097482517e-11
5.55012173125e-10
-3.81080068297e-11
5.71878562183e-10
-4.11660081182e-11
5.89959446667e-10
-4.42614008243e-11
6.09247854701e-10
-4.73627073733e-11
6.29719844772e-10
-5.04280738137e-11
6.51330318926e-10
-5.34041982083e-11
6.74008647864e-10
-5.62256273584e-11
6.97654330712e-10
-5.88146515454e-11
7.22132997057e-10
-6.10820460528e-11
7.47273137918e-10
-6.29288902001e-11
7.72864006094e-10
-6.42496261303e-11
7.98655137258e-10
-6.49363978678e-11
8.24357895154e-10
-6.48845524958e-11
8.49649338129e-10
-6.39990252016e-11
8.74178553752e-10
-6.22012100396e-11
8.97575441055e-10
-5.94358569183e-11
9.19461749545e-10
-5.56775019579e-11
9.39463998743e-10
-5.09358615236e-11
9.57227660215e-10
-4.52594551897e-11
9.72431668895e-10
-3.87365448021e-11
9.8480200435e-10
-3.14925060542e-11
9.94122911497e-10
-2.3683217828e-11
1.00024449171e-09
-1.54849700366e-11
1.00308594177e-09
-7.08241072923e-12
1.0026344947e-09
1.34333766337e-12
9.98940843102e-10
9.62438923147e-12
9.92112264021e-10
1.76123680858e-11
9.82304684867e-10
2.51811725389e-11
9.69714661737e-10
3.22269521325e-11
9.54571870206e-10
3.86663346886e-11
9.37132337427e-10
4.44339983886e-11
9.1767236136e-10
4.94804506636e-11
8.9648288359e-10
5.37705610315e-11
8.7386400633e-10
5.7283071404e-11
8.50119370953e-10
6.00109885942e-11
8.25550244343e-10
6.19624719945e-11
8.00449359861e-10
6.31616323108e-11
7.75094772656e-10
6.36486318395e-11
7.49744141625e-10
6.34786450212e-11
7.24629894566e-10
6.27195426999e-11
6.99955658645e-10
6.14484939489e-11
6.75894178686e-10
5.97479258632e-11
6.52586752808e-10
5.77013811613e-11
6.30144042361e-10
5.53897663109e-11
6.08647992844e-10
5.28883366658e-11
5.88154546683e-10
5.02645841932e-11
5.68696827982e-10
4.7577030755e-11
5.50288518035e-10
4.48748152967e-11
5.32927198495e-10
4.21979027912e-11
5.16597502837e-10
3.95777278904e-11
5.01273974935e-10
3.70381017778e-11
4.86923582147e-10
3.45962422942e-11
4.7350786665e-10
3.22638235811e-11
4.60984744483e-10
3.00479754592e-11
4.49309977682e-10
2.79521908405e-11
4.38438353959e-10
2.59771208473e-11
4.28324611798e-10
2.41212522128e-11
4.18924149005e-10
2.23814712207e-11
4.10193550439e-10
2.07535240049e-11
4.02090967252e-10
1.92323857874e-11
3.94576375907e-10
1.78125524092e-11
3.87611741097e-10
1.64882671628e-11
3.81161102747e-10
1.52536948858e-11
3.75190603587e-10
1.41030539703e-11
3.69668470561e-10
1.30307155453e-11
3.64564960406e-10
1.203127779e-11
3.59852277336e-10
1.10996221816e-11
3.55504468477e-10
1.02309575255e-11
3.51497301013e-10
9.42085687559e-12
3.47808123198e-10
8.66529189899e-12
3.4441571022e-10
7.96066891181e-12
3.41300094502e-10
7.30387061008e-12
3.3844237936e-10
6.69230749352e-12
3.35824534086e-10
6.12398295669e-12
3.33429168755e-10
5.59757597585e-12
3.3123928762e-10
5.11254488876e-12
3.29238022598e-10
4.66925459857e-12
3.27408353066e-10
4.26912659328e-12
3.25732827877e-10
3.91480483899e-12
3.24193321904e-10
3.61031725472e-12
3.22770888415e-10
3.36118526673e-12
3.21445815156e-10
3.17437823188e-12
3.20198064865e-10
3.05789463165e-12
3.19008377335e-10
3.01951044448e-12
3.17860386738e-10
3.06371638611e-12
3.1674383064e-10
3.1847779025e-12
3.1565687307e-10
3.35199820602e-12
3.48394898022e-12
9.63936503424e-10
1.29272966926e-10
9.87664251928e-10
2.67807470245e-10
9.89708174399e-10
3.16772475125e-10
9.72153860147e-10
3.16190911197e-10
9.41946155132e-10
2.93379387439e-10
9.05129721724e-10
2.62729955002e-10
8.65897777089e-10
2.31025724067e-10
8.26896260653e-10
2.01198428572e-10
7.89680492932e-10
1.74328909556e-10
7.55088838842e-10
1.50637269059e-10
7.2350734451e-10
1.29964379531e-10
6.95046560227e-10
1.12003668519e-10
6.69656077718e-10
9.64105743015e-11
6.47197173363e-10
8.28519397772e-11
6.27488036559e-10
7.10260159904e-11
6.10331357987e-10
6.06683219639e-11
5.95530706109e-10
5.15509781541e-11
5.82899854896e-10
4.34793062096e-11
5.72267732024e-10
3.62875515762e-11
5.63480686328e-10
2.98346017094e-11
5.56403148751e-10
2.40000754468e-11
5.50917361364e-10
1.86809123896e-11
5.46922594216e-10
1.37884737195e-11
5.44334107696e-10
9.24611466708e-12
5.43082015138e-10
4.98717104396e-12
5.43110134876e-10
9.5330068291e-13
5.44374879455e-10
-2.90687414132e-12
5.46844198646e-10
-6.6388577506e-12
5.50496588989e-10
-1.02831669007e-11
5.55320157644e-10
-1.38760241684e-11
5.61311723645e-10
-1.74498743565e-11
5.68475935209e-10
-2.10337404891e-11
5.76824376138e-10
-2.46534252294e-11
5.86374629673e-10
-2.83315575569e-11
5.97149263367e-10
-3.2087479214e-11
6.09174694049e-10
-3.5936960951e-11
6.22479887172e-10
-3.98917352694e-11
6.37094840742e-10
-4.39588307168e-11
6.53048800548e-10
-4.81396937402e-11
6.70368152069e-10
-5.2429088845e-11
6.89073935925e-10
-5.68137780811e-11
7.09178940565e-10
-6.12709985833e-11
7.30684339663e-10
-6.57667843142e-11
7.53575866114e-10
-7.02542169209e-11
7.77819551804e-10
-7.46717414763e-11
8.03357116176e-10
-7.89417435996e-11
8.30101157461e-10
-8.29696489265e-11
8.57930387684e-10
-8.66438615385e-11
8.86685248242e-10
-8.98368861466e-11
9.16164334517e-10
-9.24079560619e-11
9.46122123386e-10
-9.42073949664e-11
9.76268513484e-10
-9.50827686227e-11
1.00627063369e-09
-9.4886654355e-11
1.03575724914e-09
-9.34856235318e-11
1.0643259169e-09
-9.07698620571e-11
1.09155285595e-09
-8.66627816034e-11
1.1170053255e-09
-8.11299584443e-11
1.14025613436e-09
-7.41866583858e-11
1.16089966026e-09
-6.59029699007e-11
1.17856838592e-09
-5.64052597727e-11
1.19294851563e-09
-4.58726254487e-11
1.20379295021e-09
-3.45276424877e-11
1.21093004085e-09
-2.26220513862e-11
1.21426721403e-09
-1.04195755527e-11
1.21378955092e-09
1.82100795784e-12
1.20955432121e-09
1.38596250131e-11
1.20168298199e-09
2.54837124698e-11
1.19035212518e-09
3.65120338442e-11
1.17578447685e-09
4.67946044053e-11
1.1582405731e-09
5.62102418144e-11
1.13801130796e-09
6.46632662253e-11
1.11541124496e-09
7.20805154754e-11
1.09077240177e-09
7.84094049285e-11
1.0644381391e-09
8.36173335131e-11
1.03675681611e-09
8.7692309641e-11
1.00807502606e-09
9.06442587211e-11
9.78730470855e-10
9.25061828715e-11
9.49044796403e-10
9.33343005123e-11
9.19316897631e-10
9.32065370998e-11
8.89817250506e-10
9.22191825077e-11
8.6078372814e-10
9.04820086727e-11
8.32419155409e-10
8.81124909472e-11
8.04890620632e-10
8.52299085896e-11
7.78330359706e-10
8.19500204826e-11
7.52837894864e-10
7.83807956122e-11
7.28483055444e-10
7.46194188235e-11
7.05309517273e-10
7.0750565449e-11
6.83338548145e-10
6.68457824458e-11
6.62572716364e-10
6.2963734241e-11
6.42999391328e-10
5.91510543642e-11
6.24593928977e-10
5.54435674219e-11
6.07322486554e-10
5.18676899255e-11
5.91144449367e-10
4.84418679184e-11
5.76014478729e-10
4.51779551882e-11
5.61884206832e-10
4.20824737384e-11
5.48703613605e-10
3.91577269297e-11
5.3642212446e-10
3.6402755991e-11
5.24989468168e-10
3.38141438191e-11
5.14356332145e-10
3.13866778936e-11
5.04474849096e-10
2.91138881229e-11
4.95298945153e-10
2.69884769168e-11
4.86784575465e-10
2.50026585336e-11
4.78889869322e-10
2.31484236711e-11
4.71575203104e-10
2.14177436186e-11
4.64803216091e-10
1.98027266098e-11
4.58538781113e-10
1.82957372671e-11
4.52748939511e-10
1.68894885667e-11
4.47402807551e-10
1.55771143792e-11
4.42471459638e-10
1.43522296382e-11
4.37927791894e-10
1.32089842811e-11
4.33746368547e-10
1.21421165414e-11
4.29903252304e-10
1.11470106232e-11
4.26375819455e-10
1.02197634667e-11
4.23142559953e-10
9.3572647918e-12
4.2018286336e-10
8.55729398731e-12
4.1747679262e-10
7.818636e-12
4.15004850563e-10
7.14121586315e-12
4.12747748665e-10
6.52624641015e-12
4.10686195706e-10
5.97637431638e-12
4.0880073617e-10
5.49579178244e-12
4.07071686629e-10
5.09024815656e-12
4.05479242702e-10
4.76683372946e-12
4.04003855933e-10
4.53329107455e-12
4.02626986345e-10
4.39638770973e-12
4.01332233939e-10
4.3584744783e-12
4.00106327262e-10
4.41068846242e-12
3.98937539734e-10
4.52078433421e-12
4.61596074334e-12
9.57546889579e-10
1.09226048957e-10
9.82537265938e-10
2.42817067179e-10
9.95013090585e-10
3.04296622778e-10
9.92232798463e-10
3.18971175286e-10
9.77345231193e-10
3.08266926893e-10
9.54454440607e-10
2.8562071775e-10
9.27013922693e-10
2.5846621405e-10
8.97558253962e-10
2.30654069281e-10
8.67826370705e-10
2.0406076472e-10
8.38954643923e-10
1.79508967712e-10
8.11648953991e-10
1.57270041341e-10
7.86317726948e-10
1.37334867499e-10
7.63168997706e-10
1.19559275591e-10
7.42279167695e-10
1.03741742005e-10
7.23640840787e-10
8.9664315347e-11
7.07195663509e-10
7.71134719916e-11
6.92856603654e-10
6.58900111345e-11
6.80522874136e-10
5.58130093094e-11
6.70089777797e-10
4.67206220391e-11
6.61455069307e-10
3.84692849566e-11
6.54522944879e-10
3.09321753625e-11
6.49206428185e-10
2.39974054038e-11
6.45428681357e-10
1.7566197803e-11
6.43123603158e-10
1.15511711655e-11
6.42235960495e-10
5.8747931575e-12
6.42721218804e-10
4.68023087224e-13
6.44545179313e-10
-4.73085256845e-12
6.4768349019e-10
-9.77718507085e-12
6.52121085551e-10
-1.47207771325e-11
6.57851564345e-10
-1.96065161644e-11
6.64876517351e-10
-2.4474838815e-11
6.73204798323e-10
-2.93620310836e-11
6.82851725649e-10
-3.43003602916e-11
6.93838193047e-10
-3.93180307494e-11
7.06189660581e-10
-4.44389505728e-11
7.19934990962e-10
-4.96822931613e-11
7.351050899e-10
-5.50618340447e-11
7.51731304097e-10
-6.05850427682e-11
7.69843525989e-10
-6.62519115385e-11
7.89467952047e-10
-7.20535089043e-11
8.10624441886e-10
-7.79702600851e-11
8.33323430922e-10
-8.39699780207e-11
8.5756236169e-10
-9.00057038217e-11
8.83321621865e-10
-9.60134642819e-11
9.10560013464e-10
-1.01910118845e-10
9.39209832065e-10
-1.07591546709e-10
9.69171709212e-10
-1.12931509513e-10
1.00030946593e-09
-1.17781600846e-10
1.032445334e-09
-1.21972736249e-10
1.06535601065e-09
-1.25318614467e-10
1.09877009555e-09
-1.27621461734e-10
1.13236748711e-09
-1.28680142489e-10
1.16578125656e-09
-1.28300406934e-10
1.19860237092e-09
-1.26306722112e-10
1.23038742488e-09
-1.22554901516e-10
1.26066933208e-09
-1.16944675645e-10
1.28897076541e-09
-1.09431379833e-10
1.31482000287e-09
-1.00035884893e-10
1.33776861235e-09
-8.88515690621e-11
1.35740996673e-09
-7.60466041182e-11
1.37339696294e-09
-6.18596116933e-11
1.38545683993e-09
-4.65875096011e-11
1.39340108459e-09
-3.05662865815e-11
1.3971292612e-09
-1.41477435424e-11
1.39662690518e-09
2.32337148591e-12
1.3919588104e-09
1.85277262564e-11
1.38325963674e-09
3.41828918689e-11
1.37072364129e-09
4.90480346464e-11
1.35459477824e-09
6.29234725488e-11
1.33515777936e-09
7.56472455143e-11
1.31273032838e-09
8.7090721592e-11
1.28765612541e-09
9.71547221517e-11
1.26029846001e-09
1.05767073113e-10
1.23103383317e-09
1.1288196202e-10
1.20024520086e-09
1.18480942398e-10
1.16831459269e-09
1.22574866101e-10
1.13561516853e-09
1.25205605116e-10
1.1025031125e-09
1.26446353683e-10
1.06931000166e-09
1.26399644384e-10
1.03633634021e-09
1.25192840018e-10
1.00384681298e-09
1.22971531874e-10
9.72067549259e-10
1.19891750895e-10
9.4118539424e-10
1.16112060374e-10
9.11348945279e-10
1.11786467039e-10
8.82670964006e-10
1.07058775559e-10
8.55231727891e-10
1.02058654915e-10
8.29082910916e-10
9.68993838858e-11
8.04251652455e-10
9.16770440112e-11
7.80744558173e-10
8.64708333884e-11
7.58551458834e-10
8.13441604222e-11
7.37648822227e-10
7.63462126555e-11
7.18002767134e-10
7.15137555831e-11
6.99571666619e-10
6.68729809305e-11
6.82308353599e-10
6.24412826142e-11
6.66161957188e-10
5.8228886404e-11
6.51079406732e-10
5.42402954137e-11
6.37006643583e-10
5.04755388371e-11
6.23889580682e-10
4.69312279719e-11
6.11674847761e-10
4.36014334816e-11
6.00310356759e-10
4.0478403061e-11
5.89745718097e-10
3.75531406256e-11
5.79932534513e-10
3.48158681097e-11
5.70824595261e-10
3.22563896887e-11
5.62377989845e-10
2.98643764023e-11
5.54551157178e-10
2.76295870711e-11
5.47304883143e-10
2.55420393523e-11
5.40602256956e-10
2.35921428898e-11
5.34408594539e-10
2.17708048512e-11
5.28691335234e-10
2.0069516757e-11
5.2341991659e-10
1.84804303396e-11
5.18565630745e-10
1.69964292532e-11
5.14101464902e-10
1.56112026396e-11
5.1000192787e-10
1.43193258399e-11
5.06242864388e-10
1.31163526494e-11
5.0280125935e-10
1.19989223096e-11
4.99655035061e-10
1.0964882355e-11
4.96782846744e-10
1.00134249115e-11
4.94163884713e-10
9.14522771894e-12
4.91777696648e-10
8.3625800902e-12
4.89604050017e-10
7.66945443109e-12
4.8762286279e-10
7.07144959093e-12
4.85814237027e-10
6.57547175997e-12
4.8415862547e-10
6.18891284832e-12
4.82637115324e-10
5.91790594101e-12
4.81231638721e-10
5.76395705091e-12
4.79924384688e-10
5.71794654479e-12
4.78694463982e-10
5.75070359e-12
5.80172914258e-12
9.52930000095e-10
9.379601822e-11
9.76481715699e-10
2.19265323982e-10
9.93798639474e-10
2.86979670618e-10
1.00016877217e-09
3.126010138e-10
9.96222216565e-10
3.12213453859e-10
9.84369161819e-10
2.97473743783e-10
9.67151567718e-10
2.75683779285e-10
9.46701068069e-10
2.51104539909e-10
9.2464737798e-10
2.2611442565e-10
9.0217543168e-10
2.01980884741e-10
8.80116319436e-10
1.79329124242e-10
8.59033432356e-10
1.58417725202e-10
8.39293450767e-10
1.39299227816e-10
8.21121536154e-10
1.21913627316e-10
8.04642994204e-10
1.06142828112e-10
7.89914182897e-10
9.18422542919e-11
7.76945170087e-10
7.88589951831e-11
7.65716185077e-10
6.7041965878e-11
7.56189458597e-10
5.62473204777e-11
7.48317664664e-10
4.63410513353e-11
7.42049874337e-10
3.71999387151e-11
7.37335697126e-10
2.87115563195e-11
7.34128108119e-10
2.07737612974e-11
7.32385325612e-10
1.32939290489e-11
7.32072004692e-10
6.18809045332e-12
7.33159938623e-10
-6.19933354146e-13
7.35628399715e-10
-7.19933494678e-12
7.39464220154e-10
-1.36130254583e-11
7.44661684622e-10
-1.99182601035e-11
7.51222265553e-10
-2.61671140496e-11
7.59154227761e-10
-3.24068163278e-11
7.68472112133e-10
-3.86799290227e-11
7.79196096354e-10
-4.50243562603e-11
7.91351220609e-10
-5.14731648644e-11
8.04966457466e-10
-5.80541953432e-11
8.20073597216e-10
-6.47894388369e-11
8.36705912696e-10
-7.16941534322e-11
8.54896561024e-10
-7.87756929732e-11
8.74676674078e-10
-8.60320244402e-11
8.96073085522e-10
-9.34499181855e-11
9.19105640761e-10
-1.01002811185e-10
9.43784039085e-10
-1.08648370282e-10
9.7010416674e-10
-1.16325823558e-10
9.980438992e-10
-1.23953187058e-10
1.0275583847e-09
-1.31424593009e-10
1.05857487418e-09
-1.38608023333e-10
1.09098723966e-09