/*--------------------------------*- C++ -*----------------------------------*\
  =========                 |
  \\      /  F ield         | OpenFOAM: The Open Source CFD Toolbox
   \\    /   O peration     | Website:  https://openfoam.org
    \\  /    A nd           | Version:  7
     \\/     M anipulation  |
\*---------------------------------------------------------------------------*/
FoamFile
{
    version     2.0;
    format      ascii;
    class       volVectorField;
    location    "1800";
    object      U;
}
// * * * * * * * * * * * * * * * * * * * * * * * * * * * * * * * * * * * * * //

dimensions      [0 1 -1 0 0 0 0];

internalField   nonuniform List<vector> 
8192
(
(0.00104346673001 0.000156533266809 0)
(0.000759339148303 0.00012759430854 0)
(0.000549350516884 8.23943168044e-05 0)
(0.000414102003744 5.28541915989e-05 0)
(0.000326287760915 3.49600488852e-05 0)
(0.000267257384915 2.40703272593e-05 0)
(0.000225946610996 1.72404489209e-05 0)
(0.000195918982411 1.27871837457e-05 0)
(0.00017336753096 9.76427337832e-06 0)
(0.000155970437672 7.63282699736e-06 0)
(0.000142259762624 6.07785643114e-06 0)
(0.000131272660762 4.90925503469e-06 0)
(0.000122355119243 4.00829729194e-06 0)
(0.00011504856148 3.29827250148e-06 0)
(0.0001090223188 2.7279834862e-06 0)
(0.000104032132832 2.26221715035e-06 0)
(9.98938525158e-05 1.87607930782e-06 0)
(9.64662637949e-05 1.55152715979e-06 0)
(9.36395701737e-05 1.27518596683e-06 0)
(9.13274687886e-05 1.03693685505e-06 0)
(8.94615753495e-05 8.28980143188e-07 0)
(8.79874217041e-05 6.45199393032e-07 0)
(8.68615305293e-05 4.80720231273e-07 0)
(8.60492434185e-05 3.31598134454e-07 0)
(8.55230861973e-05 1.9459341228e-07 0)
(8.52615241612e-05 6.70063065272e-08 0)
(8.52480048386e-05 -5.3445637532e-08 0)
(8.54702153744e-05 -1.68719557798e-07 0)
(8.59195014041e-05 -2.80516785774e-07 0)
(8.65904091332e-05 -3.90336535046e-07 0)
(8.74803218032e-05 -4.99516605936e-07 0)
(8.85891668694e-05 -6.09263387429e-07 0)
(8.99191742296e-05 -7.20672914226e-07 0)
(9.14746685199e-05 -8.34743869911e-07 0)
(9.32618796216e-05 -9.52382805681e-07 0)
(9.52887555754e-05 -1.07440132247e-06 0)
(9.7564761159e-05 -1.20150456424e-06 0)
(0.000100100643743 -1.334269997e-06 0)
(0.00010290814575 -1.47311524939e-06 0)
(0.000105999640537 -1.61825368487e-06 0)
(0.000109387666065 -1.76963663714e-06 0)
(0.0001130843292 -1.92688180356e-06 0)
(0.000117100553714 -2.08918855785e-06 0)
(0.000121445148456 -2.25524280835e-06 0)
(0.000126123680269 -2.42311689557e-06 0)
(0.000131137150728 -2.59017350198e-06 0)
(0.000136480497807 -2.75298666989e-06 0)
(0.000142140973441 -2.90729665708e-06 0)
(0.000148096483811 -3.04801779466e-06 0)
(0.000154314016948 -3.16931790251e-06 0)
(0.000160748315014 -3.26478353581e-06 0)
(0.000167340968564 -3.32767668126e-06 0)
(0.000174020110231 -3.3512774657e-06 0)
(0.000180700863243 -3.32929627448e-06 0)
(0.000187286659294 -3.25633100131e-06 0)
(0.00019367148758 -3.12834099481e-06 0)
(0.00019974307661 -2.94310594123e-06 0)
(0.000205386937854 -2.7006288724e-06 0)
(0.000210491102159 -2.40342597219e-06 0)
(0.000214951248289 -2.05662891195e-06 0)
(0.000218675776119 -1.66782714179e-06 0)
(0.000221590268786 -1.24661448123e-06 0)
(0.000223640788688 -8.03876258428e-07 0)
(0.000224795603744 -3.50932336391e-07 0)
(0.000225045218667 1.01300943019e-07 0)
(0.000224400903175 5.42975683094e-07 0)
(0.000222892164982 9.65702564737e-07 0)
(0.00022056371289 1.36267040831e-06 0)
(0.000217472389453 1.728556938e-06 0)
(0.000213684407066 2.05931459966e-06 0)
(0.000209273046015 2.35192285393e-06 0)
(0.000204316810713 2.60417783055e-06 0)
(0.000198897926577 2.81456212459e-06 0)
(0.000193101002303 2.98220968749e-06 0)
(0.000187011678896 3.10695419837e-06 0)
(0.0001807151327 3.18942668273e-06 0)
(0.000174294383017 3.23115326709e-06 0)
(0.000167828454104 3.23460299033e-06 0)
(0.000161390527889 3.20314924554e-06 0)
(0.000155046271896 3.14093308168e-06 0)
(0.000148852524253 3.0526428235e-06 0)
(0.000142856468837 2.9432442953e-06 0)
(0.000137095357501 2.81770354581e-06 0)
(0.000131596756368 2.68074005281e-06 0)
(0.000126379229514 2.53663616772e-06 0)
(0.00012145333633 2.38911399255e-06 0)
(0.000116822809605 2.24127780797e-06 0)
(0.000112485793684 2.09561157913e-06 0)
(0.000108436047218 1.95401685588e-06 0)
(0.000104664044642 1.81787615937e-06 0)
(0.000101157938365 1.68812887702e-06 0)
(9.79043664545e-05 1.56534986509e-06 0)
(9.48891071051e-05 1.44982407762e-06 0)
(9.20975916491e-05 1.34161337019e-06 0)
(8.9515293594e-05 1.24061368423e-06 0)
(8.71280131879e-05 1.14660231701e-06 0)
(8.49220768e-05 1.05927584669e-06 0)
(8.28844687114e-05 9.78279781808e-07 0)
(8.1002910648e-05 9.03231179737e-07 0)
(7.9265901842e-05 8.33735486178e-07 0)
(7.76627300402e-05 7.69398759157e-07 0)
(7.61834616653e-05 7.09836279261e-07 0)
(7.48189175094e-05 6.54678417662e-07 0)
(7.3560638736e-05 6.03574448188e-07 0)
(7.24008467249e-05 5.56194902065e-07 0)
(7.13323992177e-05 5.12232902844e-07 0)
(7.03487444091e-05 4.71404893624e-07 0)
(6.94438738996e-05 4.33451040691e-07 0)
(6.86122748522e-05 3.98135633477e-07 0)
(6.78488811183e-05 3.6524770714e-07 0)
(6.71490225796e-05 3.34602211746e-07 0)
(6.65083713223e-05 3.06042003528e-07 0)
(6.59228825597e-05 2.79441111831e-07 0)
(6.53887272486e-05 2.54709771809e-07 0)
(6.4902212065e-05 2.31802037932e-07 0)
(6.44596805102e-05 2.10727035012e-07 0)
(6.40573861459e-05 1.91565581937e-07 0)
(6.36913246522e-05 1.74494740703e-07 0)
(6.33570046192e-05 1.59824536679e-07 0)
(6.30491258911e-05 1.48053681703e-07 0)
(6.27611158292e-05 1.39955935005e-07 0)
(6.24844428057e-05 1.36716508466e-07 0)
(6.2207575229e-05 1.40150134713e-07 0)
(6.19143792921e-05 1.53044286641e-07 0)
(6.15816816392e-05 1.79651086016e-07 0)
(6.11759414661e-05 2.26085251947e-07 0)
(6.06508184301e-05 2.99043141352e-07 0)
(5.99680979631e-05 3.83688648108e-07 0)
(0.00121017739181 0.000302889131699 0)
(0.00116033887015 0.00031520451856 0)
(0.00102700634005 0.000238105237181 0)
(0.000887646867414 0.000171751226149 0)
(0.000767077018713 0.000124447077744 0)
(0.000668769561207 9.19211068932e-05 0)
(0.00059002092515 6.94490568936e-05 0)
(0.000527006871171 5.3620238345e-05 0)
(0.000476292436527 4.21970870967e-05 0)
(0.000435144185804 3.37453416217e-05 0)
(0.000401477752399 2.7342436654e-05 0)
(0.000373723700447 2.23858170975e-05 0)
(0.000350699224228 1.84737435928e-05 0)
(0.000331506376889 1.53322242047e-05 0)
(0.000315456593921 1.27700527797e-05 0)
(0.000302016136344 1.06507894084e-05 0)
(0.000290766928114 8.87499651135e-06 0)
(0.000281378373132 7.36875776443e-06 0)
(0.000273586921513 6.07610821091e-06 0)
(0.000267181105654 4.95394331158e-06 0)
(0.000261990459666 3.96852878943e-06 0)
(0.000257877220728 3.0930636228e-06 0)
(0.000254730044631 2.30594860673e-06 0)
(0.000252459196345 1.58953597738e-06 0)
(0.000250992833248 9.29212668653e-07 0)
(0.000250274106721 3.12718849642e-07 0)
(0.000250258882775 -2.70364709686e-07 0)
(0.000250913934145 -8.29004686446e-07 0)
(0.000252215492921 -1.37101070718e-06 0)
(0.000254148080311 -1.9032633597e-06 0)
(0.000256703547721 -2.43188629897e-06 0)
(0.000259880274289 -2.96237199482e-06 0)
(0.000263682474198 -3.49966789186e-06 0)
(0.000268119572113 -4.04822648857e-06 0)
(0.000273205607269 -4.61202035884e-06 0)
(0.000278958626823 -5.19452118689e-06 0)
(0.000285400027394 -5.79864027983e-06 0)
(0.000292553800843 -6.42662683644e-06 0)
(0.000300445636711 -7.07991957788e-06 0)
(0.000309101830214 -7.75894749319e-06 0)
(0.000318547942313 -8.46287678794e-06 0)
(0.000328807158782 -9.18930419373e-06 0)
(0.000339898300399 -9.93390218884e-06 0)
(0.000351833448954 -1.06900299377e-05 0)
(0.00036461517655 -1.14483351542e-05 0)
(0.000378233401255 -1.21963862095e-05 0)
(0.000392661942097 -1.29183892117e-05 0)
(0.000407854909857 -1.35950584783e-05 0)
(0.000423743142839 -1.42037164616e-05 0)
(0.000440230969806 -1.4718695526e-05 0)
(0.000457193642425 -1.51120950109e-05 0)
(0.000474475811853 -1.53549121667e-05 0)
(0.000491891415622 -1.54185203433e-05 0)
(0.000509225286979 -1.52764228861e-05 0)
(0.00052623670415 -1.49061779098e-05 0)
(0.000542664973961 -1.42913702809e-05 0)
(0.000558237001648 -1.34234914873e-05 0)
(0.000572676632142 -1.23035550486e-05 0)
(0.000585715341525 -1.09432169184e-05 0)
(0.000597103604648 -9.36511555634e-06 0)
(0.000606622003468 -7.60216183118e-06 0)
(0.000614090965247 -5.69565673669e-06 0)
(0.000619378049238 -3.69238958564e-06 0)
(0.000622402002492 -1.64116923542e-06 0)
(0.000623133332646 4.10580259782e-07 0)
(0.000621591740043 2.41956193057e-06 0)
(0.000617841229154 4.34829437809e-06 0)
(0.000611983922664 6.16573992808e-06 0)
(0.000604153515976 7.84709668138e-06 0)
(0.000594509057956 9.37307342661e-06 0)
(0.000583229425281 1.07289973546e-05 0)
(0.00057050855582 1.19040312377e-05 0)
(0.000556551284784 1.28906724029e-05 0)
(0.000541569506227 1.36845977873e-05 0)
(0.000525778363867 1.42848160925e-05 0)
(0.000509392250939 1.4693998569e-05 0)
(0.000492620546643 1.49188023695e-05 0)
(0.000475663195632 1.49699952868e-05 0)
(0.000458706393924 1.48622430765e-05 0)
(0.000441918732566 1.46135138713e-05 0)
(0.000425448145647 1.42441552608e-05 0)
(0.00040941991946 1.37757757407e-05 0)
(0.00039393587737 1.32300934652e-05 0)
(0.000379074702633 1.26279014043e-05 0)
(0.000364893235775 1.19882529237e-05 0)
(0.000351428505105 1.13279157197e-05 0)
(0.000338700222249 1.06610914834e-05 0)
(0.000326713490171 9.99936360508e-06 0)
(0.000315461514057 9.35181743536e-06 0)
(0.000304928160213 8.72527457394e-06 0)
(0.000295090263097 8.12458902259e-06 0)
(0.000285919628113 7.55296425139e-06 0)
(0.000277384714741 7.01226228015e-06 0)
(0.000269452010278 6.50328682927e-06 0)
(0.000262087120581 6.02603116493e-06 0)
(0.000255255612429 5.57988752552e-06 0)
(0.000248923644974 5.16381901298e-06 0)
(0.000243058426794 4.77649723385e-06 0)
(0.000237628532086 4.41641006609e-06 0)
(0.00023260410537 4.08194428985e-06 0)
(0.000227956979654 3.77144762379e-06 0)
(0.000223660728648 3.48327430846e-06 0)
(0.000219690669639 3.21581782222e-06 0)
(0.000216023830098 2.96753378231e-06 0)
(0.000212638888111 2.73695556603e-06 0)
(0.00020951609411 2.52270475679e-06 0)
(0.000206637179271 2.32349816611e-06 0)
(0.000203985254057 2.13815291429e-06 0)
(0.000201544698849 1.96559088513e-06 0)
(0.000199301047104 1.80484377198e-06 0)
(0.000197240860182 1.65505995953e-06 0)
(0.000195351591543 1.51551458134e-06 0)
(0.000193621436573 1.38562436077e-06 0)
(0.00019203916255 1.2649692202e-06 0)
(0.000190593911282 1.15332329575e-06 0)
(0.00018927496451 1.05069888521e-06 0)
(0.000188071459313 9.57408251709e-07 0)
(0.000186972037524 8.74150146407e-07 0)
(0.000185964410178 8.02130799579e-07 0)
(0.000185034816787 7.43232990761e-07 0)
(0.000184167364231 7.0025152216e-07 0)
(0.000183343252615 6.77216323897e-07 0)
(0.000182539964345 6.79815050469e-07 0)
(0.000181730681196 7.15865057947e-07 0)
(0.000180884693683 7.9551925832e-07 0)
(0.00017997082127 9.29829791886e-07 0)
(0.000178969617478 1.12163436555e-06 0)
(0.000177898423816 1.31502043663e-06 0)
(0.00122478103973 0.000267930677596 0)
(0.00124107642753 0.000383706057774 0)
(0.00119615459376 0.000347858007373 0)
(0.00111335607343 0.000284156392284 0)
(0.00102030271439 0.000225665063172 0)
(0.000930696673406 0.000178616564703 0)
(0.000849969492075 0.000142229361912 0)
(0.000779516332838 0.000114307092724 0)
(0.000718969550533 9.27713967322e-05 0)
(0.000667304413599 7.59843677511e-05 0)
(0.000623343169517 6.2731037332e-05 0)
(0.000585966413908 5.21279746961e-05 0)
(0.000554188078168 4.35343502635e-05 0)
(0.000527170050467 3.6482446686e-05 0)
(0.000504212310376 3.06273094991e-05 0)
(0.000484734943904 2.57113151521e-05 0)
(0.00046825912137 2.1539462477e-05 0)
(0.0004543898063 1.79621256041e-05 0)
(0.000442801026576 1.48629385678e-05 0)
(0.000433223720261 1.21502053931e-05 0)
(0.000425435863539 9.75074341755e-06 0)
(0.000419254510369 7.6054191724e-06 0)
(0.000414529388919 5.66587309102e-06 0)
(0.000411137747649 3.89208830586e-06 0)
(0.000408980197617 2.25056585165e-06 0)
(0.000407977346624 7.12941051888e-07 0)
(0.000408067061885 -7.45074534306e-07 0)
(0.000409202229624 -2.14450411115e-06 0)
(0.000411348906257 -3.5037303455e-06 0)
(0.000414484777 -4.83897872485e-06 0)
(0.000418597850098 -6.16468126861e-06 0)
(0.00042368532368 -7.49373972849e-06 0)
(0.000429752569302 -8.83770079168e-06 0)
(0.000436812179866 -1.02068495908e-05 0)
(0.000444883030623 -1.16102230513e-05 0)
(0.000453989301115 -1.30555407798e-05 0)
(0.000464159403391 -1.45490482083e-05 0)
(0.000475424758395 -1.60952646254e-05 0)
(0.000487818358605 -1.76966279655e-05 0)
(0.00050137305201 -1.93530292729e-05 0)
(0.000516119481642 -2.10612335777e-05 0)
(0.000532083618253 -2.28141914132e-05 0)
(0.000549283833744 -2.46002576992e-05 0)
(0.000567727482744 -2.64023529893e-05 0)
(0.000587406992543 -2.81971266737e-05 0)
(0.000608295510257 -2.99542113271e-05 0)
(0.0006303422221 -3.16356890047e-05 0)
(0.000653467541726 -3.31959173534e-05 0)
(0.000677558456839 -3.45818771561e-05 0)
(0.000702464414577 -3.57341924057e-05 0)
(0.000727994199608 -3.6588931301e-05 0)
(0.000753914295135 -3.70802202609e-05 0)
(0.00077994919923 -3.7143604683e-05 0)
(0.000805784090044 -3.67199915534e-05 0)
(0.000831070100185 -3.57599346278e-05 0)
(0.000855432290854 -3.42279801103e-05 0)
(0.000878480225599 -3.21067586706e-05 0)
(0.000899820830395 -2.94004465321e-05 0)
(0.000919072970016 -2.61371067035e-05 0)
(0.000935882856966 -2.23693169963e-05 0)
(0.000949939078339 -1.81725306405e-05 0)
(0.000960985796918 -1.36409273839e-05 0)
(0.000968832714085 -8.8810885236e-06 0)
(0.000973360769127 -4.00445671562e-06 0)
(0.000974523233467 8.80085132153e-07 0)
(0.000972342629988 5.67225498444e-06 0)
(0.000966904520118 1.0284214158e-05 0)
(0.00095834946223 1.46421672969e-05 0)
(0.0009468643393 1.86861728973e-05 0)
(0.000932673934511 2.23688256294e-05 0)
(0.000916033237604 2.56535323365e-05 0)
(0.000897220595428 2.85129577587e-05 0)
(0.000876531549662 3.09280050592e-05 0)
(0.000854273053699 3.28874748206e-05 0)
(0.000830757732011 3.43883314561e-05 0)
(0.000806297932737 3.54363174661e-05 0)
(0.00078119950373 3.60465332295e-05 0)
(0.000755755443605 3.62435872528e-05 0)
(0.000730239774411 3.6061029909e-05 0)
(0.000704902090293 3.55399776759e-05 0)
(0.000679963226603 3.47270456148e-05 0)
(0.000655612376231 3.36718650182e-05 0)
(0.000632005796774 3.24245294527e-05 0)
(0.000609267057357 3.10332850121e-05 0)
(0.000587488613697 2.95426880153e-05 0)
(0.000566734399893 2.79923369521e-05 0)
(0.000547043089838 2.64161795251e-05 0)
(0.000528431698395 2.48423206943e-05 0)
(0.000510899244246 2.32932181008e-05 0)
(0.00049443026371 2.17861421775e-05 0)
(0.000478998033564 2.03337893805e-05 0)
(0.000464567421461 1.89449587841e-05 0)
(0.00045109733087 1.76252268173e-05 0)
(0.000438542742406 1.63775777134e-05 0)
(0.000426856376535 1.52029657265e-05 0)
(0.000415990015852 1.41007989603e-05 0)
(0.000405895531192 1.30693439637e-05 0)
(0.00039652565675 1.2106056033e-05 0)
(0.000387834557152 1.12078432455e-05 0)
(0.000379778225317 1.03712735148e-05 0)
(0.000372314745008 9.59273404911e-06 0)
(0.00036540444686 8.86855198874e-06 0)
(0.000359009981729 8.19508409304e-06 0)
(0.000353096330688 7.56878227421e-06 0)
(0.000347630767003 6.98624080069e-06 0)
(0.000342582781912 6.44423003715e-06 0)
(0.000337923983048 5.93972087925e-06 0)
(0.000333627971737 5.46990338329e-06 0)
(0.000329670203169 5.03220272946e-06 0)
(0.000326027831449 4.62429533024e-06 0)
(0.000322679539756 4.24412789146e-06 0)
(0.000319605354155 3.88994224916e-06 0)
(0.000316786438053 3.56030917875e-06 0)
(0.00031420486276 3.25417476785e-06 0)
(0.000311843348328 2.97092373476e-06 0)
(0.000309684967822 2.71046486375e-06 0)
(0.000307712808088 2.47334483299e-06 0)
(0.000305909581744 2.26089746481e-06 0)
(0.000304257190589 2.07543555456e-06 0)
(0.000302736253578 1.92048970071e-06 0)
(0.00030132564038 1.80108882315e-06 0)
(0.000300002108098 1.72404810433e-06 0)
(0.000298740250007 1.69815147626e-06 0)
(0.000297513177237 1.73390275426e-06 0)
(0.000296294731171 1.8419291318e-06 0)
(0.000295064629086 2.02740403414e-06 0)
(0.000293817678188 2.27221825788e-06 0)
(0.000292570699196 2.48259429892e-06 0)
(0.00122192072086 0.000221228890148 0)
(0.00125335471795 0.000382678404042 0)
(0.00125097255351 0.000396189598519 0)
(0.00121320901512 0.000356386796978 0)
(0.00115508904193 0.000304607928077 0)
(0.00108901826481 0.000255350455869 0)
(0.00102247206536 0.00021276878977 0)
(0.000959412749069 0.000177280078896 0)
(0.000901666870046 0.000148091010781 0)
(0.00084985563645 0.000124141063662 0)
(0.000803959641573 0.000104431520519 0)
(0.000763644954402 8.81188753176e-05 0)
(0.000728444902566 7.45217793318e-05 0)
(0.000697857837199 6.3100054082e-05 0)
(0.000671397165212 5.34280590732e-05 0)
(0.000648614833302 4.51702105655e-05 0)
(0.000629110401802 3.80607696489e-05 0)
(0.000612532564685 3.18879213594e-05 0)
(0.000598576935002 2.64815054015e-05 0)
(0.000586982186791 2.17036489751e-05 0)
(0.000577525669603 1.74416326168e-05 0)
(0.000570019066975 1.36024479065e-05 0)
(0.000564304369298 1.01086291685e-05 0)
(0.00056025026838 6.89504394077e-06 0)
(0.000557748994842 3.90640743815e-06 0)
(0.000556713576091 1.09534727075e-06 0)
(0.00055707547249 -1.57910967381e-06 0)
(0.000558782539454 -4.15271600037e-06 0)
(0.000561797264074 -6.65692686534e-06 0)
(0.000566095227376 -9.11961803071e-06 0)
(0.000571663740806 -1.15656247256e-05 0)
(0.000578500607074 -1.40171266757e-05 0)
(0.000586612956892 -1.64938940728e-05 0)
(0.000596016112169 -1.90134011376e-05 0)
(0.000606732424209 -2.15908075093e-05 0)
(0.000618790032336 -2.42388024496e-05 0)
(0.000632221484457 -2.69673028912e-05 0)
(0.000647062156722 -2.9782993821e-05 0)
(0.000663348405411 -3.26886992068e-05 0)
(0.000681115381523 -3.56825743456e-05 0)
(0.000700394438733 -3.8757117798e-05 0)
(0.000721210070598 -4.18980142187e-05 0)
(0.000743576325664 -4.50828405958e-05 0)
(0.000767492672876 -4.82796985789e-05 0)
(0.000792939327663 -5.14458756559e-05 0)
(0.000819872104767 -5.45266854729e-05 0)
(0.000848216938746 -5.74546879723e-05 0)
(0.000877864306289 -6.01495325212e-05 0)
(0.000908663889772 -6.25186879629e-05 0)
(0.000940419926384 -6.44593045103e-05 0)
(0.000972887772168 -6.58613805493e-05 0)
(0.00100577225175 -6.66122794109e-05 0)
(0.00103872834074 -6.66024754027e-05 0)
(0.0010713646293 -6.57322410708e-05 0)
(0.0011032498508 -6.39188621447e-05 0)
(0.00113392255668 -6.11038992519e-05 0)
(0.00116290380198 -5.72599743777e-05 0)
(0.0011897124789 -5.2396471731e-05 0)
(0.00121388266173 -4.65633670787e-05 0)
(0.00123498197063 -3.98522190253e-05 0)
(0.00125262955088 -3.23933998258e-05 0)
(0.00126651194614 -2.43491445383e-05 0)
(0.00127639513805 -1.59029560198e-05 0)
(0.00128213147743 -7.24696268329e-06 0)
(0.00128366107934 1.43054191994e-06 0)
(0.00128100821619 9.95527784511e-06 0)
(0.00127427398856 1.81735379195e-05 0)
(0.00126362684729 2.59550482021e-05 0)
(0.00124929238183 3.31928825187e-05 0)
(0.00123154338044 3.98015210031e-05 0)
(0.00121069069289 4.57142168046e-05 0)
(0.00118707500722 5.08805927762e-05 0)
(0.00116105935677 5.5265053841e-05 0)
(0.00113302200955 5.88462524194e-05 0)
(0.00110334936146 6.16175022622e-05 0)
(0.00107242855379 6.35877276563e-05 0)
(0.00104063974669 6.4782328806e-05 0)
(0.00100834824481 6.52433193336e-05 0)
(0.00097589690514 6.50282688916e-05 0)
(0.000943599383162 6.42079042142e-05 0)
(0.000911734754055 6.28625693048e-05 0)
(0.000880543895892 6.10780061252e-05 0)
(0.000850227796156 5.89410234765e-05 0)
(0.000820947708908 5.65355740995e-05 0)
(0.000792826902531 5.39396067254e-05 0)
(0.000765953625297 5.12228691086e-05 0)
(0.000740384879785 4.84456655329e-05 0)
(0.00071615062145 4.56584504582e-05 0)
(0.000693258058579 4.29020753077e-05 0)
(0.000671695808853 4.02084896127e-05 0)
(0.000651437745774 3.76017143727e-05 0)
(0.000632446436532 3.50989394661e-05 0)
(0.00061467612723 3.27116357067e-05 0)
(0.000598075271125 3.04466085482e-05 0)
(0.000582588622186 2.83069503837e-05 0)
(0.00056815893225 2.6292871094e-05 0)
(0.000554728298085 2.44024022137e-05 0)
(0.000542239206914 2.26319801622e-05 0)
(0.000530635327644 2.09769197223e-05 0)
(0.000519862091322 1.9431791615e-05 0)
(0.000509867099621 1.79907187264e-05 0)
(0.000500600394882 1.66476049437e-05 0)
(0.00049201462006 1.53963094154e-05 0)
(0.000484065092054 1.42307774811e-05 0)
(0.000476709807454 1.31451380857e-05 0)
(0.000469909395819 1.21337759688e-05 0)
(0.000463627032155 1.1191385803e-05 0)
(0.00045782831732 1.0313014326e-05 0)
(0.000452481132473 9.49409587819e-06 0)
(0.000447555471495 8.73048608075e-06 0)
(0.000443023253387 8.01849824723e-06 0)
(0.000438858115022 7.35494686181e-06 0)
(0.000435035183272 6.73720272567e-06 0)
(0.000431530824605 6.16326441174e-06 0)
(0.000428322369818 5.63185110149e-06 0)
(0.00042538781208 5.14252174236e-06 0)
(0.000422705478539 4.69582510631e-06 0)
(0.000420253680425 4.29348307881e-06 0)
(0.000418010355804 3.93860438861e-06 0)
(0.00041595273586 3.63591343468e-06 0)
(0.000414057094604 3.39195180671e-06 0)
(0.000412298690286 3.2151503573e-06 0)
(0.000410652083214 3.11553912476e-06 0)
(0.000409092123008 3.10356866742e-06 0)
(0.000407596009007 3.18683944661e-06 0)
(0.000406146699122 3.3619173518e-06 0)
(0.000404736450375 3.59490588553e-06 0)
(0.000403362322554 3.78098985773e-06 0)
(0.00121691936219 0.000182388776275 0)
(0.00124902448343 0.000357979337246 0)
(0.00126551835285 0.000406776895602 0)
(0.00125559170211 0.00039348962241 0)
(0.00122502400978 0.000356192701725 0)
(0.00118212856119 0.000312731842002 0)
(0.00113345759924 0.000270604499233 0)
(0.00108338818415 0.000232573035058 0)
(0.00103460912229 0.000199322929883 0)
(0.000988652372335 0.000170677062733 0)
(0.000946301557345 0.000146142266309 0)
(0.000907874499032 0.000125149810537 0)
(0.000873409688285 0.000107155642922 0)
(0.000842786080692 9.16768005566e-05 0)
(0.00081579853435 7.82994691014e-05 0)
(0.000792204412509 6.66751937284e-05 0)
(0.000771751721022 5.65128503941e-05 0)
(0.000754195559043 4.75697823341e-05 0)
(0.000739307255629 3.96435220866e-05 0)
(0.000726878987746 3.25645951325e-05 0)
(0.000716725654451 2.61904861314e-05 0)
(0.000708685126474 2.04006768932e-05 0)
(0.000702617571571 1.50926076334e-05 0)
(0.000698404289224 1.01784068648e-05 0)
(0.000695946318614 5.58225031101e-06 0)
(0.000695162976009 1.23823119904e-06 0)
(0.000695990409172 -2.91135366211e-06 0)
(0.000698380209985 -6.91736597825e-06 0)
(0.000702298104086 -1.08249172577e-05 0)
(0.000707722717845 -1.46742215983e-05 0)
(0.000714644404024 -1.85012327382e-05 0)
(0.000723064101666 -2.23380894676e-05 0)
(0.000732992199262 -2.62133804056e-05 0)
(0.00074444736372 -3.01522310018e-05 0)
(0.000757455291546 -3.41762087081e-05 0)
(0.000772047332746 -3.83030365429e-05 0)
(0.000788258931981 -4.25461009709e-05 0)
(0.000806127825865 -4.69137376938e-05 0)
(0.000825691930426 -5.14082795635e-05 0)
(0.000846986849675 -5.60248557419e-05 0)
(0.000870042936316 -6.07499423429e-05 0)
(0.000894881840954 -6.5559684289e-05 0)
(0.000921512499346 -7.04180384887e-05 0)
(0.000949926531697 -7.52748315483e-05 0)
(0.000980093067468 -8.00638817856e-05 0)
(0.00101195306751 -8.47014027571e-05 0)
(0.00104541329513 -8.90849768224e-05 0)
(0.00108034018889 -9.30934483737e-05 0)
(0.00111655400699 -9.65881166076e-05 0)
(0.00115382373297 -9.94155816076e-05 0)
(0.00119186333306 -0.000101412493502 0)
(0.0012303300076 -0.000102412266554 0)
(0.00126882505419 -0.000102253572385 0)
(0.00130689784501 -0.000100790175189 0)
(0.00134405322627 -9.79014861419e-05 0)
(0.00137976241463 -9.35031286538e-05 0)
(0.00141347723613 -8.75567746574e-05 0)
(0.00144464733431 -8.0078412742e-05 0)
(0.00147273970856 -7.11439520579e-05 0)
(0.00149725954956 -6.08907549279e-05 0)
(0.00151777081699 -4.95136841619e-05 0)
(0.00153391453814 -3.7254950602e-05 0)
(0.00154542271428 -2.43884937106e-05 0)
(0.00155212624312 -1.12012712205e-05 0)
(0.00155395632957 2.02518119757e-06 0)
(0.00155094007817 1.50297691165e-05 0)
(0.00154319187405 2.75814915556e-05 0)
(0.00153090246859 3.94836520852e-05 0)
(0.0015143274253 5.05737961842e-05 0)
(0.00149377603197 6.07210089619e-05 0)
(0.00146960120388 6.98222493529e-05 0)
(0.00144219043386 7.7799018329e-05 0)
(0.0014119575339 8.45951782144e-05 0)
(0.00137933474616 9.01762591469e-05 0)
(0.00134476477134 9.45301108705e-05 0)
(0.00130869237899 9.7668307658e-05 0)
(0.00127155551802 9.96274017167e-05 0)
(0.00123377617105 0.000100469076705 0)
(0.00119575148418 0.000100278516557 0)
(0.00115784585481 9.91607841329e-05 0)
(0.00112038462633 9.72355216779e-05 0)
(0.00108364984547 9.46306667586e-05 0)
(0.00104787825667 9.14760254406e-05 0)
(0.00101326142742 8.78974635479e-05 0)
(0.000979947682925 8.40122446579e-05 0)
(0.000948045408197 7.99257619307e-05 0)
(0.000917627246539 7.57296615706e-05 0)
(0.000888734761867 7.15011825551e-05 0)
(0.000861383209286 6.73034477006e-05 0)
(0.000835566148922 6.31864206429e-05 0)
(0.000811259724995 5.91882682878e-05 0)
(0.00078842650594 5.53369166206e-05 0)
(0.00076701883899 5.16516425597e-05 0)
(0.000746981713981 4.81445956143e-05 0)
(0.000728255158759 4.48221853305e-05 0)
(0.00071077620508 4.16863025773e-05 0)
(0.000694480472362 3.87353652505e-05 0)
(0.000679303419282 3.59651936254e-05 0)
(0.000665181312201 3.3369729215e-05 0)
(0.000652051955994 3.09416153026e-05 0)
(0.000639855228319 2.86726587687e-05 0)
(0.000628533453196 2.65541924457e-05 0)
(0.000618031644664 2.45773558764e-05 0)
(0.000608297646353 2.27333104569e-05 0)
(0.000599282188285 2.10134029793e-05 0)
(0.000590938878211 1.94092896365e-05 0)
(0.0005832241412 1.79130308789e-05 0)
(0.00057609711812 1.6517166019e-05 0)
(0.000569519531001 1.52147753688e-05 0)
(0.000563455520981 1.39995367552e-05 0)
(0.000557871462683 1.286578269e-05 0)
(0.000552735757345 1.18085639893e-05 0)
(0.000548018605926 1.08237254145e-05 0)
(0.000543691762821 9.90799855903e-06 0)
(0.000539728270921 9.05911677643e-06 0)
(0.000536102179827 8.27595576881e-06 0)
(0.000532788251637 7.5587010955e-06 0)
(0.000529761663506 6.90903872219e-06 0)
(0.000526997724398 6.33035465944e-06 0)
(0.000524471636401 5.82790978378e-06 0)
(0.000522158350592 5.40891739091e-06 0)
(0.000520032594772 5.08237565526e-06 0)
(0.000518069183126 4.85835885197e-06 0)
(0.000516243739058 4.74617481869e-06 0)
(0.000514533900982 4.75020215322e-06 0)
(0.000512920679168 4.86109847355e-06 0)
(0.000511388074878 5.03858082575e-06 0)
(0.000509915552589 5.18394222308e-06 0)
(0.00121283000933 0.000152639370166 0)
(0.00124165385953 0.000326799703952 0)
(0.00126563222817 0.000397484222658 0)
(0.00127183736899 0.000406503735349 0)
(0.00126052993898 0.000385053641173 0)
(0.00123635178995 0.000350944430561 0)
(0.00120413975251 0.000313274840395 0)
(0.00116772619306 0.000276385598626 0)
(0.00112984615979 0.000242169391537 0)
(0.00109233984936 0.000211293591533 0)
(0.00105638630267 0.000183830029358 0)
(0.0010226986758 0.000159576663052 0)
(0.000991671503779 0.000138220703931 0)
(0.000963486825857 0.00011941995634 0)
(0.000938188805429 0.000102841812056 0)
(0.00091573536275 8.81803481315e-05 0)
(0.000896033450985 7.51622331447e-05 0)
(0.000878962865786 6.35470819321e-05 0)
(0.000864392097237 5.31252311138e-05 0)
(0.000852188702147 4.37144874662e-05 0)
(0.000842225929079 3.5156640518e-05 0)
(0.000834386798761 2.73141233878e-05 0)
(0.000828566470107 2.00669897744e-05 0)
(0.000824673462089 1.33102629328e-05 0)
(0.000822630120738 6.95165708893e-06 0)
(0.000822372594752 9.09647212885e-07 0)
(0.000823850494795 -4.88814509425e-06 0)
(0.000827026348481 -1.05062674057e-05 0)
(0.000831874928474 -1.60025241812e-05 0)
(0.000838382495933 -2.1428825813e-05 0)
(0.000846545972285 -2.68318164298e-05 0)
(0.000856372042032 -3.22532938065e-05 0)
(0.000867876175342 -3.77304227334e-05 0)
(0.000881081547965 -4.3295736516e-05 0)
(0.000896017826322 -4.89769150636e-05 0)
(0.000912719776988 -5.47963226319e-05 0)
(0.000931225651751 -6.0770284361e-05 0)
(0.000951575292158 -6.69080790304e-05 0)
(0.000973807891255 -7.32106273783e-05 0)
(0.000997959345942 -7.96688625595e-05 0)
(0.00102405913212 -8.62617844263e-05 0)
(0.0010521266386 -9.29542250265e-05 0)
(0.00108216690727 -9.9694392407e-05 0)
(0.00111416574948 -0.00010641131597 0)
(0.00114808424661 -0.000113012390606 0)
(0.00118385270114 -0.000119381305797 0)
(0.00122136418642 -0.000125376741402 0)
(0.00126046795209 -0.000130832295926 0)
(0.00130096307195 -0.000135558158333 0)
(0.00134259286058 -0.000139345005138 0)
(0.00138504070797 -0.000141970468288 0)
(0.0014279280529 -0.000143208263111 0)
(0.00147081519595 -0.000142839719225 0)
(0.00151320552159 -0.000140667101212 0)
(0.00155455346931 -0.000136527848687 0)
(0.00159427632445 -0.000130308772639 0)
(0.00163176966239 -0.000121959256497 0)
(0.0016664260917 -0.000111502427698 0)
(0.00169765671374 -9.90429049362e-05 0)
(0.00172491429061 -8.47691928902e-05 0)
(0.00174771643498 -6.89486317709e-05 0)
(0.00176566643383 -5.19136973369e-05 0)
(0.00177846907169 -3.40405362994e-05 0)
(0.00178593942131 -1.57230842209e-05 0)
(0.00178800394649 2.652402844e-06 0)
(0.00178469485797 2.07279048125e-05 0)
(0.00177613980617 3.81866267768e-05 0)
(0.00176254929794 5.4758443834e-05 0)
(0.0017442037885 7.02195692506e-05 0)
(0.00172144163687 8.43887918904e-05 0)
(0.00169464838896 9.7122552203e-05 0)
(0.00166424733043 0.000108310552081 0)
(0.00163069093467 0.000117872945947 0)
(0.00159445266764 0.000125759549141 0)
(0.00155601858178 0.000131950881305 0)
(0.00151587826787 0.000136460239886 0)
(0.00147451504718 0.000139335544312 0)
(0.00143239569986 0.000140659618685 0)
(0.00138996039306 0.00014054795615 0)
(0.0013476136588 0.000139143694417 0)
(0.00130571721804 0.00013661026595 0)
(0.00126458519184 0.000133122714779 0)
(0.00122448188384 0.000128858860137 0)
(0.00118562197729 0.000123991352014 0)
(0.00114817274194 0.000118681325549 0)
(0.00111225772281 0.000113073967193 0)
(0.00107796136884 0.000107295967574 0)
(0.00104533412056 0.000101454608932 0)
(0.0010143975748 9.56381232828e-05 0)
(0.000985149450885 8.99169374633e-05 0)
(0.000957568179879 8.43454592495e-05 0)
(0.000931617017191 7.89641251255e-05 0)
(0.000907247637602 7.38015032633e-05 0)
(0.00088440321294 6.88763121935e-05 0)