/*--------------------------------*- C++ -*----------------------------------*\
  =========                 |
  \\      /  F ield         | OpenFOAM: The Open Source CFD Toolbox
   \\    /   O peration     | Website:  https://openfoam.org
    \\  /    A nd           | Version:  7
     \\/     M anipulation  |
\*---------------------------------------------------------------------------*/
FoamFile
{
    version     2.0;
    format      ascii;
    class       volScalarField;
    location    "900";
    object      Ci;
}
// * * * * * * * * * * * * * * * * * * * * * * * * * * * * * * * * * * * * * //

dimensions      [0 -3 0 0 1 0 0];

internalField   nonuniform List<scalar> 
8192
(
10.0000000198
9.99999993127
9.9999997997
9.99999963361
9.9999994323
9.99999920215
9.99999894801
9.99999867356
9.99999838202
9.99999807749
9.99999776396
9.99999744627
9.99999712855
9.99999681567
9.99999651133
9.99999622006
9.99999594483
9.99999568959
9.99999545634
9.99999524818
9.99999506578
9.99999491103
9.99999478274
9.99999468119
9.99999460315
9.99999454694
9.99999450679
9.99999447856
9.99999445359
9.99999442536
9.99999438275
9.99999431726
9.99999421581
9.99999406866
9.99999386184
9.99999358556
9.9999932265
9.99999277641
9.99999222446
9.99999156567
9.99999079359
9.99998990807
9.99998890852
9.99998780051
9.99998659007
9.99998528841
9.99998390795
9.99998246455
9.99998097599
9.99997946125
9.99997794211
9.99997643904
9.99997497639
9.99997357454
9.99997225899
9.9999710485
9.99996996839
9.99996903465
9.99996827116
9.99996769
9.99996731179
9.99996714274
9.99996719193
9.99996746034
9.99996795404
9.9999686586
9.99996955831
9.99997062583
9.99997184337
9.99997318016
9.99997461577
9.99997611837
9.99997766425
9.99997921956
9.99998075732
9.99998224407
9.99998365344
9.999984957
9.9999861332
9.99998716182
9.99998802872
9.99998872391
9.99998924247
9.99998958586
9.99998975909
9.99998977455
9.99998964591
9.99998939386
9.99998903762
9.99998860221
9.99998810857
9.999987582
9.99998704165
9.99998650995
9.99998600208
9.99998553626
9.99998512492
9.99998478395
9.99998451924
9.99998433775
9.99998423906
9.99998422483
9.99998429054
9.99998443421
9.99998464878
9.99998493004
9.99998526972
9.99998566258
9.99998610016
9.99998657714
9.99998708561
9.9999876208
9.9999881758
9.9999887467
9.99998932777
9.99998991608
9.99999050696
9.99999109817
9.9999916856
9.99999226692
9.99999283746
9.99999339356
9.99999392882
9.99999443785
9.99999491347
9.99999534833
9.99999572542
9.99999597745
9.99999998927
9.99999987781
9.99999975494
9.99999961645
9.99999945238
9.99999926076
9.99999904224
9.99999879932
9.9999985353
9.99999825458
9.99999796146
9.99999766093
9.99999735735
9.99999705563
9.99999675973
9.9999964742
9.99999620234
9.9999959481
9.99999571386
9.99999550275
9.99999531592
9.99999515527
9.99999502012
9.99999491086
9.99999482513
9.99999476135
9.99999471482
9.99999468143
9.9999946535
9.99999462469
9.99999458528
9.99999452673
9.9999944375
9.99999430757
9.99999412452
9.99999387802
9.99999355612
9.99999314969
9.99999264887
9.99999204747
9.99999133948
9.99999052318
9.99998959792
9.99998856744
9.99998743741
9.99998621716
9.99998491867
9.99998355619
9.9999821471
9.99998070917
9.99997926363
9.99997782994
9.99997643136
9.99997508709
9.99997382058
9.99997264917
9.99997159503
9.99997067271
9.9999699021
9.99996929429
9.99996886556
9.99996862238
9.99996857433
9.99996871999
9.99996906117
9.99996958751
9.99997029001
9.99997114853
9.99997214756
9.99997326342
9.99997447768
9.9999757649
9.99997710377
9.99997846691
9.99997983065
9.99998116756
9.9999824543
9.99998366637
9.99998478354
9.99998578653
9.99998666021
9.99998739254
9.99998797563
9.99998840652
9.99998868607
9.99998882107
9.99998882089
9.99998870064
9.99998847606
9.99998816758
9.99998779398
9.99998737735
9.99998693616
9.99998649092
9.9999860572
9.99998565185
9.9999852904
9.99998499191
9.9999847613
9.99998460488
9.99998452373
9.99998451987
9.99998459052
9.99998473417
9.99998494532
9.99998522013
9.99998555157
9.99998593464
9.99998636185
9.99998682791
9.99998732566
9.99998785017
9.99998839507
9.99998895622
9.99998952825
9.99999010792
9.99999069084
9.99999127447
9.99999185495
9.99999242976
9.99999299457
9.99999354564
9.99999407728
9.99999458467
9.99999506406
9.9999955111
9.9999959277
9.99999622048
9.99999998926
9.99999987208
9.99999975793
9.99999963994
9.99999950819
9.99999935872
9.99999918899
9.99999899853
9.99999878774
9.99999855893
9.99999831448
9.99999805829
9.99999779361
9.99999752502
9.99999725588
9.99999699088
9.99999673303
9.99999648676
9.99999625438
9.99999603978
9.99999584419
9.99999567062
9.99999551885
9.99999539051
9.99999528373
9.99999519845
9.99999513082
9.99999507866
9.99999503593
9.999994998
9.99999495704
9.99999490603
9.99999483582
9.99999473752
9.9999946014
9.99999441776
9.99999417726
9.99999387109
9.99999349143
9.99999303229
9.99999248886
9.99999185955
9.99999114418
9.99999034638
9.99998947178
9.999988529
9.99998752948
9.9999864856
9.99998541331
9.9999843265
9.99998324343
9.999982177
9.99998114543
9.99998015865
9.99997923323
9.99997837526
9.99997759929
9.99997690803
9.99997631442
9.99997581884
9.99997543294
9.99997515514
9.99997499495
9.99997494776
9.99997501906
9.99997520007
9.9999754909
9.99997587867
9.99997635936
9.99997691877
9.99997755093
9.99997824145
9.9999789821
9.99997975793
9.99998055831
9.99998136823
9.99998217548
9.99998296575
9.99998372595
9.99998444288
9.99998510338
9.99998569651
9.99998621103
9.9999866404
9.99998697784
9.99998722321
9.99998737576
9.99998744227
9.99998742801
9.99998734551
9.99998720441
9.99998702066
9.99998680587
9.99998657673
9.9999863444
9.99998612389
9.99998592487
9.99998576196
9.99998564236
9.99998557524
9.99998556323
9.99998561101
9.99998571754
9.9999858839
9.9999861063
9.99998638323
9.99998670914
9.99998708094
9.99998749221
9.99998793915
9.99998841524
9.9999889166
9.99998943716
9.99998997345
9.99999052013
9.99999107438
9.9999916317
9.99999218989
9.99999274502
9.99999329501
9.99999383577
9.99999436416
9.99999487494
9.99999536287
9.99999582829
9.9999962608
9.99999670949
9.99999690458
9.99999998947
9.99999987117
9.99999976014
9.99999965317
9.99999954066
9.99999941827
9.99999928301
9.99999913352
9.99999896904
9.99999879001
9.99999859724
9.99999839253
9.99999817782
9.99999795593
9.9999977295
9.99999750197
9.99999727628
9.99999705601
9.999996844
9.99999664356
9.99999645702
9.99999628694
9.99999613485
9.99999600199
9.99999588889
9.99999579487
9.9999957195
9.9999956594
9.99999561359
9.9999955751
9.9999955432
9.99999550672
9.99999546612
9.99999540619
9.99999532919
9.99999521745
9.99999507474
9.9999948841
9.99999464998
9.99999435991
9.99999401852
9.99999362045
9.99999317127
9.99999267291
9.99999213327
9.99999155966
9.99999096263
9.99999035206
9.99998973966
9.99998913498
9.99998854865
9.99998798761
9.99998745968
9.99998696828
9.99998651804
9.99998610939
9.99998574469
9.99998542273
9.99998514501
9.99998491002
9.99998471912
9.99998457075
9.99998446562
9.99998440102
9.9999843756
9.99998438417
9.99998442241
9.99998448283
9.99998456015
9.99998464789
9.99998474282
9.99998484091
9.99998494092
9.99998504083
9.99998514102
9.99998524123
9.99998534305
9.99998544712
9.99998555466
9.99998566529
9.99998577803
9.99998589039
9.99998599905
9.99998610018
9.99998618961
9.99998626403
9.99998632032
9.99998635737
9.99998637454
9.99998637379
9.99998635734
9.99998633004
9.99998629636
9.99998626302
9.99998623557
9.99998622117
9.99998622512
9.99998625435
9.9999863137
9.9999864087
9.99998654221
9.99998671741
9.99998693476
9.99998719504
9.99998749657
9.99998783809
9.9999882163
9.99998862851
9.99998907044
9.9999895386
9.99999002832
9.99999053589
9.99999105674
9.9999915874
9.99999212373
9.99999266278
9.99999320107
9.99999373623
9.99999426538
9.99999478643
9.99999529676
9.99999579341
9.99999627404
9.99999673079
9.99999717386
9.9999975607
9.99999806242
9.99999796863
9.99999998855
9.99999986825
9.99999975762
9.99999965458
9.99999955112
9.99999944342
9.99999932848
9.99999920448
9.99999907054
9.99999892649
9.99999877227
9.99999860867
9.99999843649
9.99999825741
9.99999807304
9.99999788579
9.99999769792
9.99999751227
9.99999733143
9.99999715821
9.99999699529
9.99999684474
9.9999967093
9.99999658933
9.99999648804
9.99999640256
9.99999633786
9.99999628543
9.99999625447
9.99999622754
9.9999962217
9.99999620694
9.99999621189
9.99999619194
9.99999618865
9.99999614527
9.99999611251
9.99999603017
9.99999594903
9.99999581798
9.9999956778
9.99999549604
9.99999529887
9.9999950734
9.99999483414
9.99999458083
9.99999432224
9.99999406259
9.99999380834
9.99999356323
9.99999333195
9.99999311613
9.99999291862
9.99999273914
9.99999257939
9.9999924382
9.99999231712
9.99999221521
9.9999921345
9.99999207459
9.9999920376
9.99999202256
9.99999202993
9.99999205598
9.99999209718
9.99999214522
9.99999219157
9.99999222409
9.99999223232
9.99999220518
9.99999213503
9.99999201505
9.99999184199
9.99999161422
9.9999913337
9.99999100459
9.99999063398
9.99999023079
9.99998980519
9.99998936799
9.99998892931
9.99998849897
9.99998808494
9.99998769466
9.99998733325
9.99998700552
9.99998671396
9.99998646121
9.99998624786
9.99998607521
9.99998594283
9.99998585144
9.9999858003
9.99998578997
9.9999858197
9.99998589001
9.99998600002
9.99998615005
9.99998633915
9.99998656734
9.99998683334
9.99998713658
9.99998747512
9.99998784757
9.99998825119
9.99998868374
9.99998914182
9.9999896225
9.99999012192
9.99999063681
9.99999116318
9.99999169774
9.9999922367
9.99999277706
9.9999933155
9.99999384955
9.99999437654
9.99999489459
9.99999540174
9.9999958964
9.99999637743
9.99999684186
9.99999729168
9.9999977129
9.99999813731
9.9999984641
9.99999901798
9.99999876597
9.99999998737
9.99999986651
9.99999975543
9.9999996539
9.99999955494
9.99999945534
9.99999935247
9.99999924443
9.99999912983
9.99999900853
9.99999888023
9.99999874521
9.9999986039
9.99999845728
9.99999830655
9.99999815336
9.99999799969
9.99999784748
9.99999769951
9.99999755737
9.99999742486
9.99999730191
9.99999719441
9.99999709813
9.99999702376
9.99999695823
9.99999692269
9.999996887
9.99999689293
9.99999688035
9.99999692662
9.99999692521
9.9999970058
9.99999700143
9.99999710371
9.99999708496
9.99999718869
9.9999971512
9.99999723123
9.99999717743
9.99999721208
9.99999714574
9.99999712656
9.99999704768
9.99999698201
9.99999688822
9.99999679171
9.99999668359
9.99999657075
9.99999645347
9.99999633456
9.99999621543
9.99999609851
9.99999598559
9.99999587947
9.99999578295
9.99999569964
9.99999563376
9.99999558971
9.99999557267
9.99999558669
9.99999563584
9.99999572113
9.99999584208
9.99999599327
9.99999616664
9.99999634869
9.99999652402
9.99999667482
9.99999678473
9.99999683842
9.99999682297
9.99999672781
9.99999654533
9.99999627179
9.99999590679
9.99999545442
9.99999492164
9.99999431918
9.99999365907
9.99999295565
9.99999222328
9.99999147744
9.99999073275
9.99999000391
9.99998930403
9.99998864542
9.99998803833
9.99998749161
9.99998701203
9.99998660466
9.9999862728
9.99998601808
9.99998584083
9.99998573993
9.99998571344
9.99998575825
9.99998587085
9.9999860468
9.99998628168
9.99998657035
9.99998690798
9.99998728919
9.99998770905
9.9999881622
9.99998864382
9.99998914875
9.99998967241
9.99999020999
9.99999075728
9.99999130996
9.99999186437
9.99999241684
9.99999296438
9.99999350409
9.99999403378
9.99999455139
9.99999505546
9.99999554491
9.99999601847
9.99999647676
9.99999691576
9.9999973433
9.99999773595
9.99999815028
9.99999843598
9.99999899887
9.99999877782
9.99999998756
9.99999986702
9.99999975563
9.99999965425
9.9999995571
9.99999946193
9.9999993665
9.99999926889
9.99999916746
9.99999906133
9.99999895042
9.99999883468
9.99999871444
9.99999859031
9.99999846353
9.99999833514
9.99999820747
9.99999808132
9.99999796064
9.99999784449
9.99999774013
9.99999764157
9.99999756353
9.99999748799
9.99999744658
9.99999739504
9.99999740109
9.99999736748
9.99999743284
9.99999740223
9.99999753947
9.99999748892
9.99999770791
9.99999761302
9.99999791221
9.99999776007
9.99999811436
9.99999791717
9.99999827236
9.99999806811
9.99999835519
9.99999818598
9.99999835469
9.99999823541
9.99999828074
9.99999818989
9.99999814383
9.99999804762
9.99999794738
9.99999782818
9.99999769771
9.99999755808
9.9999974127
9.99999726556
9.99999712101
9.99999698418
9.99999686083
9.99999675769
9.99999668197
9.99999664163
9.99999664404
9.99999669602
9.99999680184
9.9999969629
9.99999717578
9.99999743242
9.99999771929
9.99999801901
9.999998312
9.99999857864
9.99999880064
9.99999896109
9.99999904531
9.99999904117
9.9999989399
9.99999873614
9.99999842831
9.99999801831
9.99999751125
9.99999691496
9.99999623957
9.9999954973
9.9999947021
9.99999386948
9.9999930158
9.99999215798
9.99999131263
9.99999049573
9.99998972187
9.99998900419
9.99998835373
9.99998777957
9.99998728842
9.99998688498
9.99998657165
9.99998634904
9.99998621585
9.99998616933
9.99998620532
9.99998631869
9.99998650338
9.99998675285
9.99998706007
9.99998741799
9.9999878194
9.99998825736
9.99998872506
9.99998921611
9.99998972444
9.99999024452
9.99999077121
9.99999130001
9.99999182685
9.99999234831
9.99999286145
9.99999336394
9.999993854
9.99999433018
9.99999479206
9.9999952381
9.99999567072
9.99999608391
9.99999649109
9.99999686084
9.99999726364
9.99999753775
9.99999806208
9.99999798247
9.99999998769
9.99999986814
9.99999975797
9.99999965731
9.99999956113
9.99999946826
9.99999937726
9.9999992864
9.9999991939
9.99999909835
9.99999899926
9.99999889656
9.99999879055
9.99999868147
9.99999857094
9.99999845915
9.99999834966
9.999998241
9.99999814058
9.9999980416
9.99999796024
9.99999787609
9.99999782601
9.99999775752
9.99999775453
9.99999769386
9.99999776055
9.99999768531
9.99999785555
9.99999772285
9.99999804498
9.99999779013
9.99999832223
9.99999787107
9.99999865866
9.99999796195
9.99999899493
9.99999807874
9.99999924711
9.99999824417
9.99999934042
9.99999845099
9.99999925687
9.99999863342
9.99999904771
9.9999986946
9.99999878143
9.99999857995
9.99999848367
9.99999831352
9.99999814287
9.99999795509
9.99999775735
9.99999755495
9.99999735189
9.99999715489
9.99999697021
9.99999680692
9.99999667374
9.99999658245
9.99999654253
9.99999656552
9.99999665773
9.99999682459
9.9999970628
9.99999736612
9.99999771879
9.9999981027
9.99999849498
9.99999887478
9.99999922201
9.99999951868
9.99999974921
9.99999990066
9.99999996192
9.9999999251
9.99999978668
9.99999954547
9.99999920418
9.9999987664
9.99999823892
9.99999762915
9.99999694753
9.99999620569
9.99999541688
9.99999459696
9.99999375893
9.99999291857
9.99999209251
9.99999129577
9.99999054285
9.99998984596
9.99998921586
9.9999886608
9.9999881871
9.99998779869
9.99998749752
9.99998728352
9.99998715486
9.99998710821
9.99998713891
9.99998724135
9.99998740908
9.99998763523
9.99998791255
9.99998823386
9.99998859191
9.99998897991
9.99998939123
9.99998981992
9.99999026037
9.99999070775
9.99999115765
9.99999160651
9.9999920512
9.99999248935
9.99999291921
9.99999333924
9.99999374946
9.99999414773
9.99999453807
9.99999491214
9.99999528759
9.99999562857
9.99999600712
9.99999627788
9.99999674157
9.99999679998
9.99999998794
9.99999986856
9.99999975791
9.99999965755
9.9999995621
9.99999947075
9.99999938277
9.99999929666
9.99999921065
9.99999912291
9.99999903245
9.99999893887
9.9999988428
9.9999987436
9.99999864406
9.99999854239
9.99999844524
9.99999834618
9.99999826036
9.99999816862
9.99999810628
9.99999802287
9.99999800137
9.99999791833
9.99999796529
9.99999785665
9.99999801963
9.99999782725
9.99999818883
9.99999780411
9.99999849857
9.99999774804
9.99999896606
9.9999976221
9.99999957574
9.99999742448
10.0000002425
9.9999972265
10.0000007901
9.99999717347
10.0000009966
9.9999973984
10.000000732
9.99999787221
10.0000000916
9.99999834853
9.99999934919
9.99999854275
9.999998724
9.99999837639
9.99999821883
9.99999797602
9.99999773297
9.99999748214
9.99999722377
9.99999696834
9.9999967204
9.99999649192
9.99999629412
9.99999614122
9.99999604699
9.99999602598
9.99999608884
9.99999624155
9.99999648246
9.99999680291
9.99999718727
9.99999761448
9.9999980608
9.99999850265
9.99999891758
9.99999928972
9.99999960121
9.99999983829
9.99999999215
10.0000000575
10.0000000324
9.99999991728
9.99999971406
9.99999942542
9.9999990549
9.99999860702
9.99999808752
9.99999750411
9.99999686562
9.9999961832
9.99999546855
9.99999473401
9.9999939933
9.99999325833
9.99999254224
9.99999185791
9.99999121699
9.99999062944
9.99999010342
9.9999896451
9.99998925871
9.99998894653
9.99998870906
9.99998854512
9.99998845215
9.99998842633
9.99998846293
9.99998855648
9.99998870103
9.99998889037
9.99998911825
9.99998937847
9.99998966516
9.99998997277
9.99999029622
9.99999063098
9.99999097307
9.99999131913
9.9999916664
9.99999201264
9.99999235647
9.9999926962
9.99999303268
9.99999336261
9.99999369229
9.99999401002
9.99999433828
9.99999463622
9.99999497728
9.99999522955
9.99999563584
9.99999576423
9.99999998852
9.99999986921
9.99999975975
9.99999965951
9.99999956377
9.99999947239
9.99999938545
9.99999930183
9.99999921986
9.99999913731
9.999999053
9.99999896564
9.99999887656
9.99999878367
9.99999869178
9.9999985957
9.9999985074
9.99999841203
9.99999833791
9.99999824527
9.99999820119
9.99999810618
9.99999811807
9.99999799924
9.99999811391
9.99999791638
9.99999822284
9.99999782846
9.99999849416
9.99999767572
9.9999989975
9.99999736408
9.99999981618
9.99999678348
10.0000010086
9.99999587107
10.0000025191
9.99999472541
10.0000040589
9.99999371046
10.0000050688
9.99999338756
10.0000049368
9.99999414024
10.0000034925
9.99999571252
10.0000013387
9.99999722134
9.99999943378
9.9999978997
9.99999823238
9.9999977329
9.99999748124
9.99999716007
9.99999682102
9.99999648771
9.99999615518
9.99999584291
9.99999555989
9.99999532866
9.9999951702
9.99999510719
9.99999514713
9.99999529187
9.99999553354
9.99999586888
9.99999628626
9.99999677041
9.99999729423
9.99999782557
9.99999833732
9.99999880028
9.99999919045
9.99999949295
9.99999970216
9.99999981764
9.99999984435
9.99999978758
9.99999965476
9.99999945035
9.99999917974
9.99999884573
9.9999984532
9.99999800599
9.99999751085
9.99999697409
9.99999640501
9.99999581185
9.9999952055
9.99999459502
9.99999399132
9.99999340314
9.99999284079
9.99999231318
9.9999918286
9.99999139325
9.99999101216
9.99999068836
9.99999042357
9.99999021782
9.99999006998
9.99998997767
9.99998993765
9.99998994595
9.99998999808
9.99999008926
9.99999021456
9.99999036912
9.99999054819
9.99999074741
9.99999096266
9.99999119043
9.9999914275
9.99999167137
9.99999191991
9.99999217145
9.99999242531
9.99999267975
9.99999293695
9.99999319204
9.99999345469
9.99999370823
9.99999398275
9.99999422744
9.9999945268
9.99999474102
9.99999510483
9.99999523468
9.99999998823
9.99999986783
9.99999975628
9.99999965561
9.9999995598
9.99999946839
9.99999938194
9.99999929972
9.99999922039
9.9999991413
9.99999906146
9.99999897834
9.9999988944
9.99999880533
9.99999871897
9.99999862525
9.99999854357
9.99999844769
9.99999838318
9.99999828415
9.99999825702
9.99999814299
9.99999818885
9.99999802345
9.99999821098
9.99999790644
9.99999837327
9.99999773946
9.99999875904
9.99999741444
9.99999950669
9.99999674382
10.0000008257
9.99999545707
10.0000029719
9.99999326855
10.0000061179
9.99999008672
10.0000100639
9.99998636986
10.0000138715
9.99998338937
10.0000158372
9.99998289277
10.0000143613
9.99998578797
10.0000095141
9.9999907952
10.0000036182
9.99999506947
9.99999934934
9.99999683722
9.9999972795
9.99999667489
9.9999962524
9.99999585117
9.99999540869
9.99999499563
9.99999460194
9.99999428561
9.99999409143
9.99999400141
9.99999393273
9.99999381677
9.99999367567
9.99999362137
9.99999377862
9.99999421656
9.99999490106
9.9999957451
9.99999662797
9.99999744453
9.99999812642
9.99999864394
9.99999899853
9.99999920771
9.99999929553
9.9999992854
9.9999991972
9.99999904558
9.99999884031
9.99999858746
9.99999829072
9.99999795314
9.99999757803
9.99999716985
9.99999673448
9.99999627872
9.99999581046
9.99999533731
9.99999486733
9.99999440734
9.9999939645
9.99999354417
9.99999315392
9.99999279906
9.99999248361
9.99999221048
9.99999198125
9.99999179642
9.99999165534
9.9999915565
9.99999149757
9.99999147567
9.99999148744
9.99999152935
9.99999159767
9.99999168881
9.99999179921
9.99999192571
9.99999206531
9.99999221556
9.99999237425
9.99999253977
9.99999271089
9.99999288651
9.99999306701
9.99999325039
9.99999344086
9.99999363114
9.99999383588
9.99999403114
9.9999942585
9.99999445094
9.99999471515
9.99999488278
9.99999522085
9.99999531393
9.9999999891
9.99999986774
9.99999975672
9.99999965472
9.999999557
9.99999946358
9.99999937558
9.99999929253
9.99999921362
9.99999913573
9.99999905829
9.99999897742
9.9999988968
9.99999880963
9.99999872697
9.99999863374
9.99999855647
9.99999845857
9.99999840045
9.99999829489
9.99999827888
9.99999814977
9.99999821729
9.99999801953
9.99999825231
9.99999787832
9.99999844475
9.99999765675
9.99999890543
9.99999720453
9.9999998401
9.99999623249
10.0000016128
9.99999424613
10.0000047979
9.99999053004
10.0000101207
9.99998433388
10.0000180858
9.99997547045
10.000028114
9.99996538277
10.0000374864
9.99995790622
10.0000413878
9.999957968
10.00003578
9.99996737583
10.0000220422
9.99998131509
10.0000075589
9.99999171136
9.99999884969
9.99999532637
9.99999556985
9.99999503871
9.99999433059
9.99999377094
9.99999322242
9.99999303511
9.99999294549
9.99999214998
9.99998972823
9.99998550361
9.99998040084
9.99997599652
9.99997366448
9.99997396199
9.99997655781
9.99998057621
9.99998502479
9.99998913207
9.99999246968
9.99999492078
9.99999657066
9.99999758776
9.99999814995
9.99999840291
9.99999845532
9.99999837876
9.99999822246
9.99999801667
9.99999778287
9.99999753146
9.99999726847
9.99999699302
9.99999670442
9.99999640024
9.99999608189
9.99999575155
9.99999541505
9.99999507837
9.99999474873
9.99999443269
9.99999413555
9.99999386358
9.99999362267
9.99999341543
9.99999324337
9.99999310664
9.9999930045
9.99999293532
9.99999289686
9.99999288647
9.99999290114
9.99999293782
9.99999299337
9.9999930649
9.99999314955
9.99999324498
9.99999334894
9.99999345987
9.99999357633
9.99999369745
9.99999382291
9.99999395197
9.99999408634
9.99999422332
9.9999943699
9.99999451541
9.99999468101
9.99999483349
9.99999502894
9.99999517972
9.99999542189
9.9999955468
9.99999587432
9.99999592065
9.99999998822
9.99999986477
9.99999975021
9.99999964678
9.99999954801
9.99999945317
9.99999936362
9.9999992791
9.9999991995
9.9999991214
9.99999904477
9.99999896472
9.99999888575
9.99999879927
9.99999871827
9.9999986249
9.9999985489
9.9999984498
9.99999839225
9.99999828481
9.99999826773
9.99999813759
9.99999819979
9.99999800605
9.99999822311
9.99999786714
9.99999839581
9.99999765456
9.99999882877
9.99999721379
9.9999997456
9.99999621633
10.0000015943
9.99999401366
10.0000052223
9.99998944217
10.0000120588
9.99998070888
10.0000240431
9.99996577374
10.0000427364
9.99994395526
10.0000669464
9.99991897777
10.0000895625
9.99990125777
10.0000976599
9.99990390642
10.0000811957
9.9999302047
10.000046146
9.99996490673
10.0000135856
9.99998721157
9.99999745685
9.99999376597
9.99999264352
9.99999233198
9.99999254123
9.99999366909
9.99998959066
9.99997254151
9.99993789387
9.99988954528
9.99983932404
9.99980112364
9.99978443542
9.99979103455
9.99981601673
9.99985115865
9.9998882935
9.9999215149
9.99994786808
9.99996687454
9.99997955078
9.9999874713
9.99999215947
9.9999948111
9.99999624312
9.99999695302
9.99999721582
9.99999717902
9.99999693286
9.99999655077
9.99999610166
9.99999564755
9.99999523521
9.99999489203
9.99999462584
9.99999443041
9.99999429093
9.99999419106
9.99999411556
9.99999405423
9.99999399995
9.99999395096
9.99999390663
9.99999387346
9.99999385365
9.99999384923
9.9999938612
9.99999388982
9.99999393431
9.99999399339
9.99999406509
9.99999414737
9.99999423794
9.99999433479
9.99999443595
9.99999453996
9.99999464553
9.99999475196
9.99999485886
9.99999496608
9.99999507455
9.99999518365
9.99999529707
9.99999541075
9.99999553551
9.9999956561
9.99999580182
9.99999592821
9.99999610837
9.99999623095
9.99999646529
9.9999965571
9.99999688669
9.99999689015
9.99999998939
9.99999986439
9.99999974988
9.99999964381
9.99999954164
9.99999944319
9.99999935007
9.9999992621
9.99999917968
9.99999909931
9.99999902134
9.99999894041
9.99999886094
9.99999877409
9.99999869229
9.99999859875
9.99999852048
9.99999842211
9.99999835888
9.99999825566
9.99999822523
9.99999810934
9.9999981406
9.99999798642
9.99999813228
9.99999787555
9.99999824271
9.99999773425
9.99999855158
9.9999974522
9.99999922782
9.99999677006
10.0000006468
9.99999510537
10.0000036359
9.99999121204
10.0000099182
9.99998261857
10.0000227144
9.99996510013
10.000046968
9.99993319306
10.0000875399
9.99988396061
10.0001430513
9.99982542779
10.000196554
9.99978382558
10.0002148466
9.99979302194
10.0001726645
9.99985941383
10.0000892872
9.99993867012
10.0000223276
9.99998185261
9.99999127936
9.99999537134
10.0000005385
9.99998510989
9.9998913329
9.99967735582
9.99934180801
9.9989450627
9.99858431671
9.99834908161
9.99828620347
9.9983888396
9.99861122762
9.99889290794
9.99917822775
9.99942843163
9.99962501997
9.99976615458
9.99986000871
9.99991845089
9.99995286533
9.99997226104
9.99998297069
9.99998905309
9.99999287321
9.99999562204
9.99999776282
9.99999937626
10.0000004177
10.000000859
10.0000007499
10.0000002086
9.99999939155
9.99999845329
9.99999752247
9.99999668733
9.99999599701
9.99999546718
9.9999950913
9.99999484847
9.99999471398
9.99999466007
9.99999467023
9.99999472537
9.99999481066
9.99999491505
9.99999503059
9.99999515177
9.99999527478
9.99999539716
9.99999551725
9.99999563409
9.99999574716
9.99999585633
9.99999596186
9.99999606399
9.99999616396
9.99999626176
9.9999963603
9.99999645781
9.99999656116
9.99999666267
9.99999677918
9.99999688728
9.99999702803
9.99999714052
9.99999732028
9.99999742507
9.99999766512
9.99999773113
9.99999807375
9.99999803706
9.999999988
9.99999986036
9.99999974137
9.99999963317
9.99999952911
9.99999942829
9.99999933219
9.99999924076
9.99999915485
9.9999990712
9.99999899048
9.99999890746
9.99999882562
9.99999873746
9.99999865267
9.99999855864
9.99999847529
9.99999837829
9.99999830541
9.99999820849
9.99999815886
9.99999806154
9.99999805317
9.99999794634
9.9999980079
9.99999786421
9.99999804807
9.9999978006
9.99999821417
9.99999770623
9.99999858896
9.99999745059
9.99999936893
9.99999670408
10.0000010501
9.99999463907
10.0000048786
9.99998922593
10.0000138652
9.99997584814
10.0000345537
9.99994534518
10.0000786705
9.99988371562
10.0001604715
9.9997798614
10.000282016
9.99964766232
10.0004068159
9.99954864925
10.0004530175
9.99957013987
10.0003518767
9.99973104446
10.0001640208
9.99988914172
10.0000381041
10.0000293638
9.99997249694
9.99957591561
9.9985214251
9.99671469665
9.9943280514
9.99184946823
9.98985067399
9.98876005579
9.98873371706
9.9896403173
9.9911772921
9.9929988364
9.99480018158
9.99637051879
9.99760884914
9.99850577718
9.99910914163
9.99948973331
9.99971658682
9.99984470429
9.99991276349
9.99994604222
9.99996050054
9.99996600985
9.99996839928
9.99997072241
9.9999741565
9.99997873485
9.99998393436
9.99998909789
9.99999367983
9.99999734811
9.99999998474
10.0000016377
10.0000024556
10.0000026309
10.0000023578
10.0000018068
10.0000011141
10.0000003795
9.99999966977
9.99999903209
9.99999848665
9.9999980398
9.99999768857
9.99999742477
9.99999723747
9.99999711489
9.99999704573
9.99999701932
9.99999702701
9.99999706051
9.99999711475
9.99999718325
9.999997265
9.99999735358
9.99999745323
9.99999755414
9.99999766935
9.99999777871
9.99999791275
9.9999980268
9.99999818788
9.99999829853
9.99999850011
9.99999858869
9.99999885202
9.99999887935
9.99999924667
9.999999139
9.99999998945
9.99999985999
9.99999974086
9.9999996291
9.99999952054
9.99999941507
9.99999931408
9.99999921764
9.99999912646
9.99999903812
9.9999989527
9.99999886592
9.99999877975
9.99999868883
9.9999985993
9.99999850356
9.99999841377
9.99999831677
9.99999823383
9.99999814071
9.99999807406
9.99999798903
9.99999795005
9.99999787405
9.99999787747
9.99999780446
9.99999787239
9.999997782
9.99999795367
9.99999779481
9.99999815033
9.99999780231
9.99999852342
9.999997695
9.9999992322
9.99999716745
10.0000007367
9.99999533372
10.0000044787
9.99998957034
10.0000148003
9.99997249801
10.0000433746
9.99992616591
10.0001156676
9.99981720325
10.0002699062
9.99960995037
10.0005255852
9.99931850618
10.0008173207
9.99907143147
10.0009489524
9.99912176401
10.0006776187
9.99949308785
10.0004586231
9.99984291307
9.99858973512
9.99449854351
9.98676083645
9.97574231889
9.96294153375
9.95105880152
9.94254055341
9.9388740348
9.94030637812
9.9458831448
9.95410978862
9.96345904969
9.97260928654
9.98062511449
9.98703337485
9.99176109103
9.99500568999
9.99709516143
9.99837237966
9.999123868
9.99955470461
9.99979564825
9.99992406944
9.9999848647
10.0000052233
10.0000028369
9.99998969827
9.99997371359
9.9999595839
9.99994955161
9.99994415351
9.99994290295
9.99994483818
9.99994889407
9.99995411991
9.99995977302
9.99996533569
9.99997048883
9.99997506669
9.99997901518
9.99998234543
9.99998511612
9.99998740267
9.99998928067
9.999990822
9.99999209002
9.99999313912
9.99999401303
9.99999474838
9.99999537189
9.99999590785
9.99999637017
9.99999677707
9.99999713209
9.99999745363
9.9999977341
9.99999799929
9.99999822508
9.99999845551
9.99999863729
9.99999885145
9.99999899062
9.99999920683
9.99999929271
9.99999953185
9.99999953569
9.99999982562
9.99999969028
10.0000000799
9.99999970565
9.99999998774
9.9999998553
9.99999973127
9.99999961703
9.999999506
9.99999939758
9.99999929285
9.99999919201
9.99999909567
9.99999900209
9.99999891097
9.99999881918
9.99999872734
9.99999863214
9.99999853675
9.99999843755
9.99999834091
9.99999824147
9.99999814954
9.99999805586
9.99999797643
9.99999789477
9.99999783653
9.99999777192
9.99999774463
9.99999769892
9.99999771505
9.99999768297
9.99999776251
9.99999772294
9.99999790543
9.99999780192
9.99999817386
9.99999787414
9.99999862203
9.99999783305
9.99999935172
9.99999745886
10.00000063
9.99999615484
10.0000034957
9.99999159533
10.0000126006
9.99997427515
10.0000457701
9.99991268535
10.0001535102
9.99973396029
10.0004270849
9.99934258064
10.0009436392
9.99869984093
10.0016817788
9.9979867758
10.0019829141
9.99858462189
10.0016187167
9.99500662457
9.98385173642
9.95711811048
9.9171652671
9.86741909402
9.81536300299