/*--------------------------------*- C++ -*----------------------------------*\
  =========                 |
  \\      /  F ield         | OpenFOAM: The Open Source CFD Toolbox
   \\    /   O peration     | Website:  https://openfoam.org
    \\  /    A nd           | Version:  7
     \\/     M anipulation  |
\*---------------------------------------------------------------------------*/
FoamFile
{
    version     2.0;
    format      ascii;
    class       volScalarField;
    location    "900";
    object      p;
}
// * * * * * * * * * * * * * * * * * * * * * * * * * * * * * * * * * * * * * //

dimensions      [0 2 -2 0 0 0 0];

internalField   nonuniform List<scalar> 
8192
(
0.000664091759898
0.000492557295239
0.000406980440354
0.000362920826924
0.000337955037685
0.000322776165802
0.00031296259382
0.000306267896138
0.000301484424144
0.000297928047882
0.000295191664458
0.000293021786445
0.000291254022103
0.000289777887893
0.000288516811757
0.000287416311654
0.00028643674237
0.000285548689071
0.000284729947789
0.000283963488059
0.000283236041437
0.000282537099196
0.000281858183797
0.000281192306801
0.000280533555728
0.000279876770582
0.000279217282515
0.000278550695626
0.000277872698358
0.000277178892443
0.000276464630964
0.000275724858587
0.000274953948697
0.000274145532749
0.000273292318724
0.000272385896293
0.000271416528434
0.000270372930803
0.000269242043615
0.000268008803981
0.000266655932038
0.000265163749424
0.000263510055753
0.000261670094762
0.00025961664778
0.000257320294357
0.000254749877906
0.000251873204411
0.000248657984376
0.000245073001736
0.000241089462084
0.000236682442193
0.000231832341304
0.000226526230047
0.000220759007295
0.000214534306756
0.000207865131387
0.000200774223372
0.000193294184206
0.000185467337974
0.000177345276649
0.000168987963434
0.000160462243656
0.000151839689488
0.000143193888615
0.000134597504704
0.00012611954871
0.000117823240288
0.000109764678938
0.000101992317582
9.45470233587e-05
8.74624238263e-05
8.07652760255e-05
7.44757113319e-05
6.86073254967e-05
6.31671711768e-05
5.81557582954e-05
5.35671807878e-05
4.93894643641e-05
4.56051813575e-05
4.21923191527e-05
3.91253380217e-05
3.63763227731e-05
3.3916125467e-05
3.17154095745e-05
2.97455318391e-05
2.79792285519e-05
2.63911002261e-05
2.49579098961e-05
2.36587226137e-05
2.24749198029e-05
2.13901216091e-05
2.0390047608e-05
1.94623404348e-05
1.85963720183e-05
1.77830461561e-05
1.70146074268e-05
1.62844621409e-05
1.55870150492e-05
1.49175228807e-05
1.4271965147e-05
1.36469311233e-05
1.30395220686e-05
1.24472668583e-05
1.18680497215e-05
1.13000482142e-05
1.07416802061e-05
1.01915582554e-05
9.64845040576e-06
9.11124613166e-06
8.57892680081e-06
8.05053981344e-06
7.52517625797e-06
7.00195190082e-06
6.47999222547e-06
5.95842269223e-06
5.43636701908e-06
4.91295811038e-06
4.38737024878e-06
3.85888739519e-06
3.32703469292e-06
2.79182280493e-06
2.25420033335e-06
1.71690410343e-06
1.18611130056e-06
6.74827977779e-07
2.11221866555e-07
-6.41024377512e-08
0.000515162625753
0.000451664314918
0.000402009091568
0.000369402208093
0.00034752837309
0.000332392770067
0.000321614152074
0.000313726318389
0.000307803456269
0.000303247062691
0.000299661199874
0.0002967779279
0.000294411906178
0.000292432238077
0.00029074466946
0.000289280106921
0.000287987061129
0.000286826572608
0.000285768736922
0.000284790279284
0.000283872830234
0.000283001677446
0.000282164846071
0.000281352408717
0.000280555957834
0.000279768193902
0.000278982595457
0.000278193148187
0.000277394116526
0.000276579843071
0.000275744566083
0.000274882247245
0.000273986403791
0.000273049940199
0.000272064976286
0.000271022669582
0.000269913031817
0.000268724740973
0.000267444953238
0.00026605912202
0.000264550835407
0.000262901687746
0.000261091206347
0.000259096858996
0.000256894172256
0.000254456991969
0.000251757915357
0.000248768916048
0.000245462168782
0.000241811059168
0.000237791338302
0.000233382357135
0.000228568297462
0.000223339311957
0.000217692497028
0.000211632647667
0.000205172773479
0.000198334380121
0.00019114752848
0.000183650670341
0.000175890218945
0.00016791975963
0.000159798775802
0.000151590820813
0.000143361220356
0.000135174580945
0.0001270924752
0.000119171611181
0.000111462668536
0.000104009798629
9.68506078358e-05
9.00163749467e-05
8.35322935692e-05
7.74176285897e-05
7.16857676078e-05
6.63442132909e-05
6.1394598709e-05
5.68328179323e-05
5.26493454242e-05
4.88297784351e-05
4.53555887255e-05
4.22050294667e-05
3.93541185673e-05
3.67776145806e-05
3.44499122994e-05
3.23458061794e-05
3.04410940468e-05
2.87130154338e-05
2.71405357129e-05
2.57044973315e-05
2.43876643869e-05
2.31746868702e-05
2.20520088758e-05
2.10077409434e-05
2.00315128608e-05
1.91143188365e-05
1.82483638376e-05
1.74269166087e-05
1.66441730681e-05
1.58951317136e-05
1.51754818985e-05
1.44815046457e-05
1.38099855479e-05
1.31581386279e-05
1.25235402547e-05
1.19040718164e-05
1.12978702205e-05
1.07032850462e-05
1.01188415914e-05
9.54320890493e-06
8.97517234021e-06
8.41361010527e-06
7.85747380286e-06
7.30577306184e-06
6.75756508807e-06
6.21195046094e-06
5.66807779284e-06
5.12516132151e-06
4.58251828338e-06
4.0396368274e-06
3.49629200476e-06
2.95273799197e-06
2.41002290608e-06
1.87050385327e-06
1.33869565853e-06
8.22728938177e-07
3.36286431332e-07
-9.06955668732e-09
0.000432175001086
0.000409529254848
0.000383571408053
0.000362375039413
0.000346297068433
0.000334025381507
0.000324538773265
0.000317108675606
0.000311212635128
0.000306471322404
0.000302606490673
0.000299412239563
0.00029673491151
0.000294458839658
0.000292496169939
0.000290779553322
0.000289256869727
0.000287887393859
0.000286638987703
0.000285486026851
0.00028440785427
0.000283387615285
0.000282411369971
0.000281467408462
0.000280545715605
0.000279637546225
0.000278735080107
0.000277831137559
0.000276918940285
0.000275991902684
0.000275043444871
0.000274066819881
0.000273054949491
0.00027200026401
0.000270894543138
0.000269728755783
0.000268492898662
0.00026717583472
0.000265765134998
0.000264246929725
0.00026260577809
0.000260824569458
0.000258884473483
0.000256764960424
0.000254443917
0.000251897884719
0.00024910244663
0.000246032782158
0.000242664397504
0.000238974020415
0.000234940624572
0.000230546525224
0.000225778469458
0.000220628639486
0.000215095497421
0.000209184425475
0.000202908145368
0.000196286927484
0.000189348611018
0.000182128448599
0.000174668751147
0.000167018246149
0.000159231006123
0.000151364839426
0.000143479197245
0.000135632873453
0.0001278818771
0.000120277771595
0.000112866656381
0.000105688784361
9.87786150934e-05
9.21650452114e-05
8.58716192664e-05
7.99166364102e-05
7.43131532455e-05
6.90689339789e-05
6.41864265764e-05
5.96628520272e-05
5.54904751613e-05
5.16570866924e-05
4.81466801407e-05
4.49402698447e-05
4.20167753206e-05
3.93538947045e-05
3.69289023652e-05
3.47193261154e-05
3.27034821267e-05
3.08608647085e-05
2.9172402529e-05
2.76206005833e-05
2.61895909987e-05
2.48651149979e-05
2.36344565683e-05
2.24863444691e-05
2.14108362557e-05
2.03991940816e-05
1.94437597911e-05
1.85378339047e-05
1.76755618864e-05
1.68518291662e-05
1.60621659843e-05
1.53026619124e-05
1.45698899895e-05
1.3860839639e-05
1.31728578633e-05
1.25035976977e-05
1.18509733383e-05
1.12131209944e-05
1.05883649821e-05
9.97518830756e-06
9.37220747156e-06
8.77815104921e-06
8.1918421183e-06
7.61218456135e-06
7.03815389776e-06
6.46879348346e-06
5.90321781592e-06
5.34062530979e-06
4.78032439649e-06
4.2217783287e-06
3.66467684501e-06
3.10904639861e-06
2.55541666823e-06
2.00506938134e-06
1.46040508112e-06
9.25388706384e-07
4.05238181201e-07
6.1606523895e-09
0.000387570160877
0.000379212573794
0.000365056022212
0.000351300616287
0.000339907274903
0.000330663570527
0.000323115904717
0.000316895618293
0.000311724406553
0.000307389661926
0.000303725631408
0.000300601265509
0.000297912116929
0.000295574549173
0.00029352136186
0.000291698382879
0.000290061778029
0.000288575917698
0.000287211683621
0.00028594512434
0.000284756386296
0.000283628861827
0.000282548507283
0.000281503294002
0.000280482762753
0.000279477659397
0.00027847962944
0.000277480961683
0.000276474369963
0.000275452800045
0.00027440925594
0.000273336639706
0.000272227600061
0.000271074386033
0.000269868703023
0.000268601569482
0.000267263173734
0.000265842731669
0.000264328347895
0.000262706884987
0.000260963848311
0.000259083297167
0.000257047796979
0.000254838431465
0.000252434897798
0.000249815710615
0.000246958540922
0.000243840711692
0.00024043986125
0.000236734767727
0.000232706303726
0.000228338464528
0.000223619392276
0.000218542311432
0.000213106301894
0.00020731686469
0.000201186270808
0.000194733714619
0.000187985309064
0.000180973956204
0.000173739089785
0.000166326200376
0.000158785949316
0.000151172682924
0.000143542363357
0.000135950242018
0.000128448731959
0.000121085797879
0.000113904056624
0.000106940573625
0.000100227091931
9.3790372883e-05
8.76524372507e-05
8.18306472825e-05
7.63376576754e-05
7.11813002086e-05
6.63644897598e-05
6.18852481113e-05
5.77369210204e-05
5.39086187567e-05
5.03858588989e-05
4.71513506648e-05
4.41858403634e-05
4.14689384363e-05
3.89798643382e-05
3.66980687873e-05
3.46037163744e-05
3.26780304627e-05
3.09035148849e-05
2.92640732704e-05
2.77450485866e-05
2.63332039964e-05
2.50166632977e-05
2.37848255741e-05
2.26282654206e-05
2.15386269521e-05
2.05085175048e-05
1.953140483e-05
1.86015203021e-05
1.771376941e-05
1.68636502285e-05
1.604717987e-05
1.52608287561e-05
1.45014621645e-05
1.37662885685e-05
1.30528140677e-05
1.23588023706e-05
1.16822396652e-05
1.10213039179e-05
1.03743380658e-05
9.73982680019e-06
9.11637660162e-06
8.50269894653e-06
7.89759662635e-06
7.29995342636e-06
6.70872753124e-06
6.12294943977e-06
5.54172547906e-06
4.96424869114e-06
4.38981963296e-06
3.81788107646e-06
3.24807264992e-06
2.68031453736e-06
2.11493069077e-06
1.55280225081e-06
9.95391973668e-07
4.43763992048e-07
8.80340649005e-09
0.000359897576532
0.000357968495006
0.00035020782678
0.000341050180839
0.000332799985832
0.000325794132387
0.000319875373842
0.000314838285152
0.000310514514917
0.000306774420652
0.000303516784336
0.00030066040078
0.000298138669258
0.000295896207133
0.00029388661004
0.000292070840494
0.000290415977684
0.000288894197832
0.000287481920786
0.000286159088132
0.000284908550877
0.000283715550127
0.000282567276834
0.000281452498264
0.000280361240339
0.00027928451694
0.000278214092857
0.000277142279129
0.000276061754895
0.000274965405116
0.000273846172121
0.000272696916856
0.000271510286553
0.000270278585992
0.000268993650296
0.000267646717713
0.000266228301827
0.00026472806348
0.000263134684211
0.000261435744686
0.000259617614097
0.00025766535954
0.000255562688315
0.000253291940607
0.00025083415485
0.000248169232261
0.000245276229067
0.000242133802614
0.000238720828283
0.00023501718615
0.000231004689835
0.000226668099575
0.000221996135364
0.000216982395561
0.000211626098776
0.000205932602014
0.000199913692818
0.000193587691478
0.000186979420063
0.000180120098943
0.000173047199347
0.000165804164625
0.000158439725672
0.000151006484505
0.000143558725258
0.000136149884318
0.000128830278467
0.000121645457509
0.00011463540827
0.000107834590902
0.000101272433133
9.49738456565e-05
8.89595188286e-05
8.3245982647e-05
7.78454973245e-05
7.27658555562e-05
6.80101981212e-05
6.35769587706e-05
5.94600293429e-05
5.5649178297e-05
5.21306934359e-05
4.88881747925e-05
4.59033846998e-05
4.31570672357e-05
4.06296708746e-05
3.83019363448e-05
3.61553381306e-05
3.41723875659e-05
3.23368170698e-05
3.06336695544e-05
2.90493169666e-05
2.75714289527e-05
2.61889088609e-05
2.48918101847e-05
2.36712431696e-05
2.25192782787e-05
2.14288511258e-05
2.03936716767e-05
1.94081394701e-05
1.84672656302e-05
1.75666020165e-05
1.67021773506e-05
1.58704400604e-05
1.50682073221e-05
1.42926198372e-05
1.35411017434e-05
1.28113251827e-05
1.21011789698e-05
1.14087409503e-05
1.07322535921e-05
1.00701025039e-05
9.42079754816e-06
8.78295637436e-06
8.15529019503e-06
7.53659180439e-06
6.92572588989e-06
6.32162193303e-06
5.72327018741e-06
5.12972169626e-06
4.54009389584e-06
3.95358438418e-06
3.369496514e-06
2.78728045812e-06
2.20658551972e-06
1.62727784335e-06
1.04921391061e-06
4.71126945395e-07
9.47678132833e-09
0.000341501073408
0.000342445552747
0.000338446681284
0.00033234837199
0.000326283572154
0.000320874525399
0.000316171956592
0.000312081074455
0.000308495361329
0.000305326394066
0.000302504853646
0.000299975961383
0.000297695274234
0.000295625781066
0.000293736049182
0.000291999039452
0.000290391309709
0.000288892436617
0.00028748456244
0.000286152017967
0.000284880996976
0.000283659269666
0.000282475928189
0.000281321159867
0.000280186045164
0.000279062376576
0.000277942492453
0.000276819128098
0.000275685282508
0.000274534091996
0.00027335871133
0.000272152199926
0.000270907410972
0.000269616881566
0.000268272722283
0.000266866504922
0.000265389147711
0.000263830797945
0.000262180713051
0.000260427142607
0.000258557215884
0.000256556842523
0.00025441063783
0.00025210188926
0.000249612586427
0.000246923542947
0.000244014642632
0.000240865242711
0.000237454758971
0.000233763439315
0.000229773301808
0.000225469175874
0.000220839750734
0.000215878519278
0.00021058451971
0.000204962822408
0.000199024768368
0.000192788013674
0.000186276459768
0.000179520164046
0.000172555312958
0.000165424194148
0.000158174778435
0.00015085935045
0.00014353204969
0.000136245948964
0.000129050500173
0.000121989768812
0.000115101737249
0.000108418668307
0.000101967977078
9.57729794384e-05
8.98532454747e-05
8.42246213133e-05
7.88990436397e-05
7.38842395055e-05
6.91834284015e-05
6.47951733837e-05
6.07134965924e-05
5.69282962367e-05
5.34260225714e-05
5.01905183031e-05
4.72039108138e-05
4.444745525e-05
4.19022573691e-05
3.95498406774e-05
3.7372552997e-05
3.53538284652e-05
3.34783312538e-05
3.17320097953e-05
3.0102087779e-05
2.85770135968e-05
2.7146384775e-05
2.58008593653e-05
2.45320625051e-05
2.33324935234e-05
2.21954369145e-05
2.11148790553e-05
2.00854315974e-05
1.91022618072e-05
1.81610297651e-05
1.72578320639e-05
1.63891515572e-05
1.55518126073e-05
1.47429413124e-05
1.39599301588e-05
1.320040662e-05
1.2462205212e-05
1.17433426048e-05
1.1041995383e-05
1.03564801384e-05
9.68523557286e-06
9.02680638138e-06
8.3798286878e-06
7.74301691485e-06
7.11515201162e-06
6.49507113288e-06
5.88165902162e-06
5.27384167664e-06
4.67058322874e-06
4.07088728272e-06
3.47380343303e-06
2.87843583487e-06
2.28393555304e-06
1.68940978321e-06
1.09355431434e-06
4.93617909835e-07
1.06243360201e-08
0.000328582132452
0.00033076437417
0.000329015139679
0.000325034786152
0.000320576021729
0.000316357021271
0.000312567969978
0.000309203840854
0.000306207697004
0.000303519428791
0.000301088248589
0.000298873512246
0.000296842675482
0.000294969129151
0.000293230555838
0.000291607809286
0.000290084175236
0.000288644878826
0.000287276742086
0.000285967930234
0.000284707750447
0.000283486482478
0.000282295229813
0.000281125785196
0.000279970508491
0.000278822210889
0.000277674045196
0.00027651940369
0.000275351823782
0.000274164894377
0.000272952164697
0.000271707054127
0.00027042276172
0.000269092174039
0.000267707770064
0.000266261522048
0.000264744791426
0.000263148219357
0.000261461612172
0.00025967382323
0.000257772634481
0.000255744643924
0.000253575169109
0.000251248182486
0.000248746301362
0.000246050863242
0.000243142124404
0.000239999622854
0.000236602741302
0.000232931486835
0.000228967468609
0.00022469500726
0.000220102262998
0.000215182244608
0.000209933577366
0.000204360967544
0.000198475381142
0.000192294015752
0.000185840169755
0.000179143140887
0.000172238323794
0.000165167521754
0.000157978933
0.000150725841042
0.000143463690262
0.00013624653574
0.000129124061141
0.000122139608938
0.000115329582595
0.000108724273556
0.000102349274701
9.62265222178e-05
9.03746774497e-05
8.48090762243e-05
7.95414479217e-05
7.4579488252e-05
6.99264162964e-05
6.55807108601e-05
6.15361778585e-05
5.77823887053e-05
5.43054260521e-05
5.10888123095e-05
4.8114480881e-05
4.536367089e-05
4.28176679246e-05
4.04583588622e-05
3.82686052497e-05
3.62324617588e-05
3.43352749179e-05
3.25636968282e-05
3.09056432512e-05
2.93502186268e-05
2.78876240945e-05
2.65090592824e-05
2.52066246501e-05
2.3973228366e-05
2.28024998304e-05
2.16887107406e-05
2.0626703866e-05
1.96118292582e-05
1.86398873993e-05
1.77070786763e-05
1.68099585448e-05
1.59453977471e-05
1.51105469966e-05
1.43028055724e-05
1.35197933306e-05
1.27593256745e-05
1.20193910818e-05
1.1298130819e-05
1.05938205185e-05
9.9048533197e-06
9.2297243192e-06
8.56701610066e-06
7.91538517199e-06
7.27354918643e-06
6.64027491696e-06
6.01436704698e-06
5.39465794264e-06
4.77999852187e-06
4.16924978293e-06
3.56127239148e-06
2.95490516003e-06
2.34890541273e-06
1.74178153289e-06
1.13136902318e-06
5.13946372764e-07
1.34553555404e-08
0.000319099773031
0.000321754568913
0.000321358994882
0.0003188634634
0.000315620931631
0.000312328333101
0.000309252361602
0.000306456184518
0.000303926085172
0.000301626930488
0.000299522647091
0.000297582164442
0.000295780068958
0.000294095690478
0.000292511968052
0.000291014501007
0.000289590850163
0.000288230049219
0.000286922267653
0.000285658574909
0.000284430769413
0.000283231247968
0.000282052900006
0.000280889017025
0.000279733214143
0.000278579352144
0.000277421464191
0.000276253686543
0.00027507019215
0.000273865122192
0.000272632516958
0.000271366245044
0.000270059929823
0.0002687068721
0.000267299967777
0.000265831619349
0.000264293640083
0.000262677149969
0.000260972462926
0.000259168965716
0.000257254990476
0.000255217685526
0.000253042893108
0.000250715048944
0.000248217126779
0.000245530661557
0.000242635895493
0.000239512098902
0.000236138115537
0.000232493163417
0.000228557880466
0.000224315543299
0.000219753322702
0.000214863400877
0.000209643792058
0.000204098788467
0.000198239065596
0.000192081560507
0.000185649250164
0.00017897099042
0.000172081719088
0.000165023236152
0.000157844852128
0.000150602204566
0.000143353570209
0.000136155357187
0.00012905854944
0.000122106428178
0.000115334057504
0.000108769790552
0.000102437480099
9.63578711199e-05
9.0548931876e-05
8.50256761509e-05
7.97997725659e-05
7.48789626531e-05
7.02664284302e-05
6.59603840501e-05
6.19540965129e-05
5.82363740173e-05
5.47924247732e-05
5.16049196802e-05
4.86550817465e-05
4.59236595429e-05
4.33916999131e-05
4.10410942228e-05
3.88549156498e-05
3.68175881447e-05
3.49149334123e-05
3.31341378835e-05
3.14636725243e-05
2.98931890043e-05
2.84134075776e-05
2.70160060959e-05
2.5693515304e-05
2.44392229416e-05
2.32470874621e-05
2.21116612893e-05
2.10280229937e-05
1.99917175761e-05
1.89987039589e-05
1.80453088128e-05
1.71281859039e-05
1.62442802208e-05
1.53907962305e-05
1.45651696778e-05
1.37650424261e-05
1.29882398834e-05
1.2232750627e-05
1.14967078652e-05
1.07783724308e-05
1.00761170144e-05
9.38841139141e-06
8.71380840462e-06
8.05093050989e-06
7.3984566975e-06
6.75510963485e-06
6.1196428314e-06
5.49082749348e-06
4.86743823965e-06
4.24823555583e-06
3.63193958387e-06
3.01718215239e-06
2.40240714503e-06
1.78565764753e-06
1.16414784048e-06
5.33529948231e-07
1.86617520659e-08
0.000311890535676
0.000314661568682
0.000315079382142
0.000313628587796
0.000311317726931
0.000308765324923
0.000306266026871
0.000303928418724
0.000301774102037
0.000299790635197
0.000297955644507
0.00029624642052
0.000294643028544
0.000293128807126
0.000291689966277
0.000290314982551
0.000288994041927
0.00028771859743
0.000286481039729
0.000285274458294
0.000284092468728
0.000282929085881
0.000281778627506
0.000280635637504
0.00027949482529
0.000278351005505
0.00027719904261
0.000276033801813
0.000274850099429
0.00027364265113
0.000272406018137
0.000271134550366
0.000269822325465
0.000268463082592
0.000267050149682
0.000265576362784
0.000264033975975
0.000262414560312
0.000260708890484
0.000258906818354
0.000256997133848
0.000254967415953
0.000252803880724
0.000250491239784
0.000248012592612
0.000245349389116
0.000242481514163
0.000239387559008
0.000236045347927
0.000232432770921
0.000228528925078
0.000224315488101
0.000219778157342
0.00021490792729
0.000209701993489
0.000204164179978
0.00019830494939
0.000192141163751
0.000185695740851
0.000178997355303
0.000172080670183
0.000164987754368
0.000157769861166
0.000150486540514
0.000143200678569
0.000135972546712
0.000128855572846
0.000121893611889
0.000115120433794
0.000108562260752
0.000102241190527
9.61769723263e-05
9.03871109954e-05
8.48864887503e-05
7.96868746373e-05
7.47961593318e-05
7.02174683972e-05
6.59485675912e-05
6.19818412789e-05
5.83048692969e-05
5.49014532244e-05
5.17528680006e-05
4.8839113431e-05
4.61399933653e-05
4.36359308952e-05
4.13085043699e-05
3.91407404768e-05
3.71172234777e-05
3.52240809194e-05
3.34488960457e-05
3.17805834694e-05
3.02092521545e-05
2.87260699976e-05
2.73231376042e-05
2.59933745564e-05
2.47304189946e-05
2.352853997e-05
2.23825614205e-05
2.12877963816e-05
2.02399900604e-05
1.92352704885e-05
1.82701056258e-05
1.73412659255e-05
1.64457915249e-05
1.55809633378e-05
1.47442774451e-05
1.39334222562e-05
1.31462579991e-05
1.23807981465e-05
1.16351924424e-05
1.09077112239e-05
1.01967307674e-05
9.50071940662e-06
8.81822418698e-06
8.14785781738e-06
7.48828566638e-06
6.83821247872e-06
6.19636833085e-06
5.56149296068e-06
4.93231677589e-06
4.30753503261e-06
3.68576789983e-06
3.06549154442e-06
2.44491149373e-06
1.82172874475e-06
1.19273343008e-06
5.53195464261e-07
2.66921333005e-08
0.000306258823379
0.000308983566311
0.000309885445879
0.000309169807356
0.000307574439275
0.000305620406026
0.000303598308747
0.000301641972906
0.000299799171802
0.000298076895109
0.000296465541356
0.00029495043213
0.000293516714696
0.000292151113017
0.000290842296458
0.00028958071059
0.000288358248308
0.000287167916574
0.000286003552437
0.000284859598595
0.00028373093214
0.00028261273549
0.000281500398667
0.00028038944381
0.000279275467778
0.000278154088925
0.000277020897
0.00027587141459
0.000274701055919
0.000273505084603
0.000272278569146
0.000271016334974
0.000269712911745
0.000268362474614
0.00026695877793
0.000265495079661
0.000263964054544
0.00026235769378
0.000260667188903
0.000258882797719
0.00025699369093
0.000254987780107
0.000252851531454
0.000250569776917
0.000248125545211
0.000245499951848
0.000242672207769
0.000239619827317
0.000236319127701
0.000232746098953
0.000228877668199
0.000224693280285
0.000220176590085
0.000215316967652
0.000210110525162
0.00020456052287
0.000198677251827
0.000192477654855
0.000185984845519
0.000179227556211
0.000172240193645
0.000165065075078
0.000157756189894
0.000150378994819
0.00014300323459
0.000135694796688
0.000128510897219
0.000121496678083
0.000114684424616
0.000108097734652
0.000101756860878
9.56808176222e-05
8.98868962884e-05
8.43900105271e-05
7.92021806411e-05
7.43315557408e-05
6.97811727848e-05
6.55481192408e-05
6.16234820611e-05
5.79930677482e-05
5.46386660243e-05
5.15395573565e-05
4.86739767164e-05
4.60203254515e-05
4.35580345145e-05
4.12680817507e-05
3.91332259288e-05
3.71380409325e-05
3.52688271935e-05
3.35134598551e-05
3.18612135181e-05
3.03025875612e-05
2.88291444221e-05
2.74333661232e-05
2.61085300049e-05
2.48486025994e-05
2.36481495547e-05
2.25022593644e-05
2.14064786855e-05
2.03567573279e-05
1.93494012379e-05
1.83810321084e-05
1.74485524575e-05
1.65491152478e-05
1.56800972629e-05
1.48390756085e-05
1.40238068022e-05
1.32322080056e-05
1.24623400186e-05
1.17123917033e-05
1.09806655485e-05
1.02655641052e-05
9.56557704439e-06
8.87926857833e-06
8.20526496831e-06
7.54224176993e-06
6.8889103312e-06
6.24400277227e-06
5.60625412602e-06
4.97437924018e-06
4.34703999196e-06
3.72279454697e-06
3.10001367979e-06
2.47673866883e-06
1.85044303129e-06
1.21765812266e-06
5.73458177459e-07
3.78362564888e-08
0.000301770047615
0.000304378098195
0.000305561139697
0.000305361871049
0.000304315266776
0.000302846522979
0.000301224006994
0.000299591176609
0.000298013084143
0.000296512116949
0.00029508996552
0.000293739567526
0.000292451043042
0.000291214377034
0.000290020460773
0.000288861359539
0.000287730248295
0.00028662122921
0.000285529128151
0.000284449309612
0.000283377522276
0.000282309775398
0.000281242241604
0.000280171181725
0.000279092885274
0.000278003619209
0.000276899579041
0.000275776853455
0.000274631386828
0.00027345894152
0.000272255058257
0.000271015013127
0.000269733769717
0.000268405924794
0.000267025645751
0.000265586597688
0.000264081857627
0.000262503812874
0.000260844040111
0.000259093161525
0.00025724067458
0.000255274753388
0.000253182023111
0.000250947315829
0.000248553428764
0.000245980925338
0.000243208046868
0.000240210833809
0.000236963579313
0.000233439733143
0.00022961331401
0.000225460757952
0.000220962952742
0.000216107061277
0.000210887727142
0.000205307453344
0.000199376308664
0.000193111393205
0.000186536259678
0.000179679971533
0.000172576517893
0.000165267959207
0.000157811742204
0.000150282057031
0.000142758559476
0.000135314820343
0.000128013575111
0.000120902241901
0.000114011095366
0.000107360161883
0.000100967731452
9.48525084593e-05
8.90318226733e-05
8.35206811341e-05
7.8331448624e-05
7.34726170417e-05
6.89470465248e-05
6.47508128146e-05
6.08731585342e-05
5.72974346688e-05
5.40026917106e-05
5.09655250803e-05
4.81618086278e-05
4.55680644903e-05
4.31623723245e-05
4.09248495477e-05
3.88378028485e-05
3.68856655032e-05
3.50548175477e-05
3.33333576904e-05
3.17108693999e-05
3.01782037234e-05
2.87272884163e-05
2.73509654392e-05
2.60428550605e-05
2.47972431986e-05
2.36089882853e-05
2.24734441488e-05
2.13863958948e-05
2.03440062643e-05
1.93427704392e-05
1.83794776614e-05
1.74511783747e-05
1.65551558526e-05
1.56889014917e-05
1.48500931013e-05
1.40365756514e-05
1.32463440299e-05
1.24775274353e-05
1.17283750827e-05
1.09972429386e-05
1.02825812212e-05
9.5829224084e-06
8.89686947603e-06
8.22308403973e-06
7.56027396424e-06
6.9071798031e-06
6.26255905917e-06
5.62516658651e-06
4.99372825791e-06
4.36690292707e-06
3.74322417599e-06
3.12100778337e-06
2.49820340958e-06
1.87216256119e-06
1.23929860174e-06
5.94643168601e-07
5.22586477007e-08
0.000298141124367
0.000300605585301
0.000301943300816
0.00030210521077
0.000301478279412
0.000300402720368
0.000299116255995
0.000297761132513
0.000296412058114
0.000295102629696
0.000293843904345
0.000292635709636
0.00029147293835
0.000290348803818
0.000289256389593
0.00028818929487
0.000287141826775
0.000286108982192
0.000285086344475
0.00028406995657
0.00028305619852
0.000282041680075
0.000281023150753
0.000279997428867
0.000278961341379
0.000277911672213
0.000276845115456
0.000275758239512
0.000274647451065
0.000273508959225
0.000272338738147
0.00027113248649
0.000269885582051
0.000268593029741
0.00026724940082
0.000265848760874
0.000264384583417
0.00026284964535
0.000261235899584
0.000259534319479
0.000257734709217
0.000255825474905
0.000253793353778
0.000251623105615
0.000249297183554
0.000246795424604
0.000244094834658
0.000241169587388
0.000237991397734
0.000234530442154
0.000230756937175
0.000226643323836
0.00022216675662
0.000217311367923
0.000212069732201
0.000206443209299
0.000200441394296
0.000194081418674
0.000187387449827
0.000180389281466
0.000173120151235
0.000165620479294
0.000157951665694
0.000150201047954
0.000142462592864
0.00013481990121
0.000127343676549
0.000120085301005
0.000113071955595
0.000106318387757
9.98408887828e-05
9.36586050706e-05
8.77890645445e-05
8.22471597377e-05
7.70455472186e-05
7.21930695476e-05
6.76921966675e-05
6.35374738711e-05
5.97155438569e-05
5.62064187332e-05
5.29855112665e-05
5.00259173427e-05
4.73004833276e-05
4.47833542247e-05
4.24509142303e-05
4.02821977674e-05
3.82589233509e-05
3.63653044456e-05
3.45877566746e-05
3.29145792741e-05
3.13356537889e-05
2.98421794823e-05
2.84264506045e-05
2.70816735191e-05
2.58018184462e-05
2.4581499927e-05
2.34158803691e-05
2.23005919116e-05
2.1231672668e-05
2.02055142725e-05
1.92188182971e-05
1.82685596869e-05
1.73519557602e-05
1.64664396654e-05
1.56096374161e-05
1.47793478234e-05
1.39735247736e-05
1.31902614096e-05
1.24277758466e-05
1.16843981092e-05
1.09585580128e-05
1.02487737268e-05
9.55364075718e-06
8.87182104902e-06
8.20203184158e-06
7.54303376292e-06
6.89361740991e-06
6.25258722448e-06
5.61874075346e-06
4.99084015223e-06
4.36757080515e-06
3.74747883653e-06
3.12887492219e-06
2.50968680129e-06
1.88724001321e-06
1.25795180496e-06
6.16943429567e-07
7.00136039868e-08
0.000295180141705
0.000297494232007
0.000298906766007
0.000299319257095
0.00029901203789
0.000298254100421
0.00029725028085
0.000296134818639
0.000294986120882
0.000293845137672
0.000292730194943
0.00029164702905
0.000290594927012
0.000289570229245
0.000288568207043
0.000287583997157
0.000286613014596
0.000285651090185
0.000284694471833
0.000283739765136
0.000282783852855
0.000281823812702
0.000280856841718
0.000279880193851
0.000278891124514
0.000277886837754
0.000276864443749
0.000275820922342
0.000274753087809
0.000273657553961
0.000272530697936
0.000271368620973
0.000270167104416
0.000268921558914
0.000267626964465
0.000266277798373
0.000264867947432
0.000263390599627
0.000261838109416
0.000260201829204
0.000258471898422
0.000256636981005
0.000254683943547
0.000252597471951
0.000250359637652
0.000247949450125
0.000245342475199
0.000242510659289
0.000239422566352
0.000236044272561
0.000232341112716
0.000228280270899
0.000223833861686
0.000218981798163
0.00021371362824
0.000208028831336
0.000201935870216
0.000195451301053
0.000188599809326
0.00018141257583
0.000173921679672
0.000166162850567
0.000158201253266
0.000150144924373
0.000142108854047
0.000134188954091
0.000126467728264
0.000119003856909
0.000111819281367
0.000104920379722
9.83217349453e-05
9.20442702054e-05
8.61054845915e-05
8.05193179339e-05
7.52983674602e-05
7.0451675896e-05
6.59808751682e-05
6.18781633738e-05
5.81265308189e-05
5.4701503809e-05
5.15737487921e-05
4.87119079232e-05
4.60850686932e-05
4.36644989275e-05
4.14245841113e-05
3.93431171856e-05
3.74011650037e-05
3.55827138975e-05
3.38742376551e-05
3.22642723214e-05
3.07430385389e-05
2.93021249339e-05
2.79342315633e-05
2.66329659793e-05
2.53926826444e-05
2.42083567538e-05
2.30754848249e-05
2.1990005846e-05
2.09482381739e-05
1.99468284729e-05
1.89827099236e-05