/*--------------------------------*- C++ -*----------------------------------*\
  =========                 |
  \\      /  F ield         | OpenFOAM: The Open Source CFD Toolbox
   \\    /   O peration     | Website:  https://openfoam.org
    \\  /    A nd           | Version:  7
     \\/     M anipulation  |
\*---------------------------------------------------------------------------*/
FoamFile
{
    version     2.0;
    format      ascii;
    class       surfaceScalarField;
    location    "900";
    object      phi;
}
// * * * * * * * * * * * * * * * * * * * * * * * * * * * * * * * * * * * * * //

dimensions      [0 3 -1 0 0 0 0];

internalField   nonuniform List<scalar> 
16192
(
6.92892981568e-10
2.44607018432e-10
4.93502652052e-10
1.99390335398e-10
3.64756405629e-10
1.28746252197e-10
2.8218940653e-10
8.25670045191e-11
2.27602628137e-10
5.45867837126e-11
1.90048028447e-10
3.75546049605e-11
1.63178634225e-10
2.6869399489e-11
1.43278184319e-10
1.9900455197e-11
1.28109681304e-10
1.5168508342e-11
1.16278802451e-10
1.18308842042e-11
1.06883938355e-10
9.39486945827e-12
9.93209569584e-11
7.56298673875e-12
9.31715798432e-11
6.14938241742e-12
8.81376630947e-11
5.03392197159e-12
8.40012792771e-11
4.13638894376e-12
8.05997038443e-11
3.40158042039e-12
7.78092652943e-11
2.79044338536e-12
7.55346225271e-11
2.27464740799e-12
7.37014610428e-11
1.83316592263e-12
7.22514012587e-11
1.45006397887e-12
7.11383749762e-11
1.11303023478e-12
7.03259988839e-11
8.12379765178e-13
6.97856403137e-11
5.40361978638e-13
6.94949727721e-11
2.90670657589e-13
6.94368847632e-11
5.80908675279e-14
6.95986470121e-11
-1.61759660231e-13
6.99712706082e-11
-3.72621215185e-13
7.05490078329e-11
-5.7773504113e-13
7.13289621156e-11
-7.7995219996e-13
7.23107786075e-11
-9.81814469217e-13
7.34963937116e-11
-1.18561300448e-12
7.48898245778e-11
-1.39342861278e-12
7.64969826058e-11
-1.60715543969e-12
7.83254944783e-11
-1.82850883376e-12
8.03845150736e-11
-2.05901688235e-12
8.26845142028e-11
-2.29999459056e-12
8.52370186297e-11
-2.55249880538e-12
8.8054287506e-11
-2.81726199481e-12
9.1148898753e-11
-3.0946028333e-12
9.45332215378e-11
-3.38431265576e-12
9.82187518941e-11
-3.68551825386e-12
1.0221529088e-10
-3.99652474917e-12
1.06529953814e-10
-4.31464635576e-12
1.11166011829e-10
-4.6360389882e-12
1.16121588645e-10
-4.95555522415e-12
1.2138826197e-10
-5.26664914898e-12
1.26949651756e-10
-5.56136302796e-12
1.32780108936e-10
-5.83042793061e-12
1.3884364322e-10
-6.06350269604e-12
1.45093236094e-10
-6.24955915978e-12
1.51470668459e-10
-6.37739683952e-12
1.57906948267e-10
-6.43624281818e-12
1.64323356984e-10
-6.41637074956e-12
1.7063306181e-10
-6.30966635867e-12
1.76743181741e-10
-6.11008161833e-12
1.82557172877e-10
-5.81395356261e-12
1.87977415657e-10
-5.42020673549e-12
1.92907943921e-10
-4.93049439594e-12
1.97257323783e-10
-4.34934903093e-12
2.0094174134e-10
-3.68439040081e-12
2.03888329312e-10
-2.94656531925e-12
2.06038616063e-10
-2.15026910873e-12
2.07351720478e-10
-1.31309243144e-12
2.07806694191e-10
-4.54967603141e-13
2.07403409402e-10
4.03284728001e-13
2.06161699286e-10
1.24170409541e-12
2.04118927068e-10
2.04276038161e-12
2.01326532522e-10
2.79237749062e-12
1.97846307503e-10
3.48020319334e-12
1.93747093844e-10
4.09918783373e-12
1.89102291574e-10
4.64477300986e-12
1.83988199593e-10
5.11406010181e-12
1.78482944523e-10
5.50522119945e-12
1.72665664952e-10
5.81724454406e-12
1.66615652737e-10
6.04997669133e-12
1.60411259198e-10
6.20435829887e-12
1.54128501962e-10
6.2827228881e-12
1.47839439999e-10
6.28902914231e-12
1.41610481797e-10
6.22892738544e-12
1.3550083795e-10
6.10961547284e-12
1.29561313461e-10
5.93949887003e-12
1.23833574716e-10
5.72771610874e-12
1.18349942397e-10
5.48361280581e-12
1.13133681103e-10
5.2162449253e-12
1.08199696021e-10
4.93397183682e-12
1.03555514164e-10
4.64417158183e-12
9.92024226172e-11
4.35308409085e-12
9.51366498178e-11
4.06576788363e-12
9.13505022914e-11
3.78614492324e-12
8.78333968869e-11
3.51710476666e-12
8.4572756148e-11
3.26064181248e-12
8.15547542259e-11
3.01800434748e-12
7.87649171848e-11
2.78984057967e-12
7.61885894046e-11
2.5763321004e-12
7.38112841821e-11
2.3773101287e-12
7.16189366372e-11
2.19235275764e-12
6.95980781015e-11
2.02086391538e-12
6.77359478523e-11
1.86213557926e-12
6.60205573446e-11
1.71539570623e-12
6.44407181399e-11
1.57984411726e-12
6.29860439356e-11
1.45467880115e-12
6.1646933592e-11
1.33911452492e-12
6.04145417079e-11
1.23239566181e-12
5.92807404739e-11
1.1338045518e-12
5.82380766414e-11
1.04266673183e-12
5.72797252221e-11
9.58353875053e-13
5.63994419355e-11
8.80285357582e-13
5.55915146227e-11
8.07928993895e-13
5.48507143546e-11
7.40801625891e-13
5.41722454015e-11
6.78469992767e-13
5.35516936656e-11
6.2055252383e-13
5.29849716398e-11
5.66722570513e-13
5.24682580839e-11
5.16713918674e-13
5.1997928778e-11
4.70329493562e-13
5.15704741124e-11
4.27454731064e-13
5.11823964873e-11
3.88077570457e-13
5.08300781516e-11
3.52318204788e-13
5.05096046524e-11
3.20473288548e-13
5.02165220829e-11
2.93082315102e-13
4.99454930895e-11
2.71028689227e-13
4.96897960926e-11
2.55696677327e-13
4.94405760911e-11
2.4921966801e-13
4.918569857e-11
2.54877222951e-13
4.89079784134e-11
2.77719924387e-13
4.85825141021e-11
3.25464230363e-13
4.81732982945e-11
4.09215923422e-13
4.76321574132e-11
5.41141163664e-13
6.94380333569e-13
9.5337782774e-10
2.2872919679e-10
8.59592300696e-10
2.93175874028e-10
7.45063326148e-10
2.43275237778e-10
6.41945031197e-10
1.85685309922e-10
5.56864021651e-10
1.39667803526e-10
4.88613349033e-10
1.05805287783e-10
4.34165282888e-10
8.13174758425e-11
3.90561739848e-10
6.3504008472e-11
3.55384760419e-10
5.03454980261e-11
3.26774469168e-10
4.04411856946e-11
3.03329185177e-10
3.28401636306e-11
2.83995542832e-10
2.68966391485e-11
2.67977654986e-10
2.21672801608e-11
2.54668686808e-10
1.83428998146e-11
2.4360113505e-10
1.52039500832e-11
2.34411129213e-10
1.25915952902e-11
2.26812804894e-10
1.0388776339e-11
2.20579797482e-10
8.50766299583e-12
2.15531755562e-10
6.88121551818e-12
2.11524407791e-10
5.45741886913e-12
2.08442165913e-10
4.19527865031e-12
2.0619255591e-10
3.06199568473e-12
2.0470198193e-10
2.03094125219e-12
2.03912472391e-10
1.0801848535e-12
2.03779158001e-10
1.91409314875e-13
2.04268299787e-10
-6.50897960422e-13
2.0535573203e-10
-1.46005045932e-12
2.07025620925e-10
-2.24762133958e-12
2.09269463643e-10
-3.02379257284e-12
2.12085265115e-10
-3.79761369649e-12
2.15476841978e-10
-4.57718749543e-12
2.19453209249e-10
-5.36979315619e-12
2.24028009845e-10
-6.18195264555e-12
2.29218947517e-10
-7.01944214745e-12
2.35047184084e-10
-7.88724774088e-12
2.41536659072e-10
-8.78946214834e-12
2.48713288117e-10
-9.72911826302e-12
2.56603992949e-10
-1.07079546735e-11
2.65235515123e-10
-1.17261098367e-11
2.74632965737e-10
-1.27817446801e-11
2.84818069671e-10
-1.387059977e-11
2.95807074209e-10
-1.49855027026e-11
3.07608314095e-10
-1.61158551892e-11
3.20219457286e-10
-1.72471464517e-11
3.33624501605e-10
-1.83605590072e-11
3.47790648559e-10
-1.94327507415e-11
3.62665243688e-10
-2.04359080625e-11
3.78173031708e-10
-2.13381613402e-11
3.94214016447e-10
-2.21044286672e-11
4.10662223361e-10
-2.26977036325e-11
4.27365623006e-10
-2.30807310265e-11
4.44147384199e-10
-2.32179363108e-11
4.60808496114e-10
-2.30774136865e-11
4.77131659533e-10
-2.26327605775e-11
4.92886233737e-10
-2.18645876479e-11
5.07833974144e-10
-2.07616281071e-11
5.21735315957e-10
-1.93214864408e-11
5.34356042501e-10
-1.75511639915e-11
5.45474277698e-10
-1.54675339247e-11
5.54887805328e-10
-1.30978756965e-11
5.62421653238e-10
-1.04803801493e-11
5.6793562265e-10
-7.66421565015e-12
5.7133101358e-10
-4.70847146015e-12
5.72555440084e-10
-1.67939344386e-12
5.7160466613e-10
1.35404815181e-12
5.68520957587e-10
4.32539148575e-12
5.63388283464e-10
7.1754035479e-12
5.56325383096e-10
9.85523828101e-12
5.474780847e-10
1.23274546072e-11
5.37012166756e-10
1.45650527813e-11
5.25107532714e-10
1.6549349359e-11
5.11953819335e-10
1.82677125298e-11
4.97747077477e-10
1.97119001982e-11
4.82686978935e-10
2.08772797416e-11
4.66974040314e-10
2.17628527631e-11
4.50806522662e-10
2.23718154486e-11
4.34376891154e-10
2.27122969846e-11
4.17867956077e-10
2.27979108359e-11
4.01448999586e-10
2.26478352297e-11
3.85272281002e-10
2.22862907186e-11
3.69470290324e-10
2.17414518756e-11
3.54154011176e-10
2.10439634582e-11
3.39412300228e-10
2.02252978497e-11
3.25312336679e-10
1.93161883416e-11
3.11900974925e-10
1.83453189674e-11
2.992067631e-10
1.73383739063e-11
2.87242370271e-10
1.63174720794e-11
2.760071841e-10
1.53009533251e-11
2.65489885056e-10
1.43034467925e-11
2.55670856032e-10
1.33361395605e-11
2.46524339256e-10
1.24071667427e-11
2.38020295858e-10
1.15220577032e-11
2.30125958351e-10
1.06841893516e-11
2.22807088521e-10
9.89521400572e-12
2.16028968444e-10
9.15544270032e-12
2.0975715828e-10
8.46417544995e-12
2.03958057613e-10
7.81997686965e-12
1.98599304694e-10
7.22090027903e-12
1.93650045887e-10
6.66466562664e-12
1.89081102461e-10
6.14879782687e-12
1.84865058633e-10
5.67073201996e-12
1.80976289525e-10
5.22789205685e-12
1.7739094499e-10
4.81774766407e-12
1.74086900887e-10
4.4378551557e-12
1.71043687547e-10
4.08588566379e-12
1.68242401796e-10
3.75964434157e-12
1.65665607777e-10
3.45708330321e-12
1.63297229203e-10
3.17631075721e-12
1.61122435013e-10
2.91559836515e-12
1.59127518185e-10
2.67338879066e-12
1.57299766935e-10
2.4483052567e-12
1.55627325429e-10
2.23916512998e-12
1.54099040326e-10
2.04499972839e-12
1.52704287118e-10
1.86508310597e-12
1.51432768811e-10
1.69897320827e-12
1.50274276433e-10
1.54656991808e-12
1.49218398571e-10
1.40819588866e-12
1.48254163483e-10
1.2847080741e-12
1.47369595259e-10
1.1776501571e-12
1.46551165105e-10
1.08945840874e-12
1.4578312781e-10
1.02373353885e-12
1.4504676478e-10
9.85582316032e-13
1.4431964803e-10
9.81993721894e-13
1.43575287691e-10
1.02208020437e-12
1.42784183361e-10
1.11656873853e-12
1.41918915981e-10
1.27448370241e-12
1.4097111201e-10
1.48894562964e-12
1.68562198625e-12
9.76216378829e-10
1.9001282373e-10
9.62988482809e-10
3.06403781454e-10
9.06141918695e-10
3.00121812644e-10
8.33844985546e-10
2.57982253319e-10
7.61092017979e-10
2.1242078118e-10
6.94291788142e-10
1.72605527648e-10
6.35511857376e-10
1.40097416645e-10
5.84853628903e-10
1.14162247003e-10
5.4163152869e-10
9.35676083129e-11
5.04922314133e-10
7.71504102962e-11
4.73803617341e-10
6.39588704041e-11
4.47445628827e-10
5.32546375154e-11
4.25136413239e-10
4.44765054326e-11
4.06279226214e-10
3.72000962818e-11
3.90379572709e-10
3.11036127491e-11
3.7702986215e-10
2.59413146502e-11
3.65894880366e-10
2.1523766529e-11
3.56699185316e-10
1.77033659765e-11
3.49216616367e-10
1.43637918931e-11
3.4326174296e-10
1.14122991182e-11
3.3868296526e-10
8.77406259241e-12
3.3535697079e-10
6.38799572754e-12
3.33184283845e-10
4.2036331053e-12
3.3208568634e-10
2.17878655265e-12
3.31999330563e-10
2.77768612083e-13
3.32878398605e-10
-1.52996317584e-12
3.34689189944e-10
-3.27083957587e-12
3.37409546589e-10
-4.96797633927e-12
3.41027537938e-10
-6.64178270561e-12
3.45540337653e-10
-8.31041253449e-12
3.50953235221e-10
-9.99008430488e-12
3.5727872858e-10
-1.16952857176e-11
3.64535647781e-10
-1.34388707105e-11
3.72748258611e-10
-1.52320512705e-11
3.81945295034e-10
-1.70842815141e-11
3.92158865505e-10
-1.90030287291e-11
4.03423176748e-10
-2.09934239451e-11
4.15773015052e-10
-2.30577854053e-11
4.2924192632e-10
-2.51950110718e-11
4.4386003836e-10
-2.73998438765e-11
4.5965147991e-10
-2.96620252504e-11
4.76631368216e-10
-3.19653714063e-11
4.94802368218e-10
-3.42868317347e-11
5.14150869645e-10
-3.65956203625e-11
5.34642888201e-10
-3.88525458199e-11
5.56219868421e-10
-4.10096949396e-11
5.78794644884e-10
-4.30106442649e-11
6.02247891431e-10
-4.47913635281e-11
6.26425438685e-10
-4.62819277521e-11
6.51136848136e-10
-4.74090614665e-11
6.76155578931e-10
-4.8099407325e-11
7.01220967702e-10
-4.8283268311e-11
7.26042073525e-10
-4.78984613327e-11
7.50303258404e-10
-4.68938867227e-11
7.73671221266e-10
-4.52324923668e-11
7.95803129468e-10
-4.28934798112e-11
8.16355506047e-10
-3.9873809531e-11
8.34993624905e-10
-3.6189233536e-11
8.51401283447e-10
-3.18751487738e-11
8.65290907448e-10
-2.69874627336e-11
8.76413888027e-10
-2.16033317885e-11
8.8457075684e-10
-1.58210643234e-11
8.89620255974e-10
-9.75796007303e-12
8.91485862202e-10
-3.5449989044e-12
8.9015835237e-10
2.68154893213e-12
8.85693751171e-10
8.7899744694e-12
8.78207096037e-10
1.46620319804e-11
8.67863338919e-10
2.0198961426e-11
8.54867169566e-10
2.53235837622e-11
8.39453430271e-10
2.9978747005e-11
8.21879110178e-10
3.41236206235e-11
8.02417061074e-10
3.77297103884e-11
7.81350982379e-10
4.07779263768e-11
7.58971024372e-10
4.32571852537e-11
7.35569419367e-10
4.51644063828e-11
7.11435749032e-10
4.65054366142e-11
6.86851723824e-10
4.72962761208e-11
6.62085640412e-10
4.75639520607e-11
6.37386910689e-10
4.73465272412e-11
6.12981163299e-10
4.66920053104e-11
5.89066386121e-10
4.56562014567e-11
5.6581043787e-10
4.42998894142e-11
5.43350061617e-10
4.26856571102e-11
5.21791338122e-10
4.08748999422e-11
5.01211364856e-10
3.89252851904e-11
4.81660855744e-10
3.68888803876e-11
4.63167330035e-10
3.48109991537e-11
4.45738579566e-10
3.27297085781e-11
4.29366157543e-10
3.067587653e-11
4.14028696348e-10
2.86736107832e-11
3.99694928573e-10
2.67409463793e-11
3.86326340672e-10
2.48906587232e-11
3.73879434626e-10
2.31311093681e-11
3.62307603204e-10
2.14670597603e-11
3.51562646573e-10
1.99004137249e-11
3.41595967822e-10
1.84308682795e-11
3.32359491515e-10
1.70564667474e-11
3.23806347972e-10
1.57740566264e-11
3.15891365046e-10
1.45796605016e-11
3.08571403412e-10
1.34687703987e-11
3.01805568072e-10
1.24365772803e-11
2.95555322331e-10
1.14781466295e-11
2.89784527192e-10
1.05885506016e-11
2.84459423477e-10
9.76296562453e-12
2.7954857146e-10
8.99674348591e-12
2.75022758273e-10
8.28546241058e-12
2.70854881681e-10
7.62496396923e-12
2.6701981525e-10
7.01138049987e-12
2.63494258873e-10
6.44115740925e-12
2.60256575733e-10
5.91107400377e-12
2.5728661602e-10
5.41826656062e-12
2.54565525233e-10
4.96025706957e-12
2.52075534265e-10
4.53499150852e-12
2.4979972623e-10
4.14089164599e-12
2.47721774608e-10
3.77692510933e-12
2.45825645778e-10
3.44269882012e-12
2.44095260078e-10
3.13858151806e-12
2.4251410733e-10
2.86586061777e-12
2.41064820539e-10
2.62693666543e-12
2.39728726908e-10
2.42555168952e-12
2.38485429837e-10
2.26703025681e-12
2.3731254312e-10
2.15846871908e-12
2.3618583208e-10
2.10870459463e-12
2.35080266829e-10
2.12764550948e-12
2.3397292574e-10
2.22391012833e-12
2.32849351872e-10
2.39805802114e-12
2.31713829264e-10
2.6244686992e-12
2.80784247484e-12
9.71773266326e-10
1.5573956316e-10
9.86720351955e-10
2.91456707173e-10
9.68284936336e-10
3.18557238945e-10
9.28087030856e-10
2.98180168882e-10
8.7798124409e-10
2.62526577821e-10
8.25488770888e-10
2.25098010653e-10
7.74758250828e-10
1.908279465e-10
7.27821614341e-10
1.61098893293e-10
6.85491695043e-10
1.35897537401e-10
6.47919090319e-10
1.1472302476e-10
6.14917978566e-10
9.69599917957e-11
5.8614985177e-10
8.20227737947e-11
5.61223718026e-10
6.94026484474e-11
5.39748496734e-10
5.86753265697e-11
5.21358624773e-10
4.94934933711e-11
5.05724981153e-10
4.15749665276e-11
4.92558001185e-10
3.46907542892e-11
4.81606827255e-10
2.86545471592e-11
4.72656617318e-10
2.33140084787e-11
4.65525155251e-10
1.85437671571e-11
4.60059359514e-10
1.42398635624e-11
4.56131982162e-10
1.03153775079e-11
4.53638624108e-10
6.6969947321e-12
4.52495103284e-10
3.32231004406e-12
4.52635166545e-10
1.3770708743e-13
4.54008512503e-10
-2.90330835185e-12
4.56579080972e-10
-5.84140820309e-12
4.6032357173e-10
-8.7124681752e-12
4.65230141606e-10
-1.1548354516e-11
4.71297233769e-10
-1.43775074049e-11
4.78532493599e-10
-1.72253474869e-11
4.86951724325e-10
-2.01145202856e-11
4.96577834328e-10
-2.30649848393e-11
5.07439725083e-10
-2.60939462009e-11
5.19571065822e-10
-2.92156261923e-11
5.33008896966e-10
-3.24408632622e-11
5.47792001406e-10
-3.57765308696e-11
5.63958980244e-10
-3.92247654444e-11
5.8154597045e-10
-4.27820007953e-11
6.00583946642e-10
-4.64378174932e-11
6.21095561375e-10
-5.01736349096e-11
6.43091499827e-10
-5.39613018937e-11
6.66566359462e-10
-5.7761680158e-11
6.91494115107e-10
-6.15233612313e-11
7.17823296622e-10
-6.51817087474e-11
7.45472087954e-10
-6.86584636878e-11
7.74323646417e-10
-7.18621760597e-11
8.04222026723e-10
-7.46897130755e-11
8.34969155483e-10
-7.70290217847e-11
8.66323315165e-10
-7.8763182666e-11
8.97999539063e-10
-7.97755893529e-11
9.29672182898e-10
-7.99558673636e-11
9.6097973643e-10
-7.92059678194e-11
9.91531713519e-10
-7.74458152652e-11
1.02091726877e-09
-7.46179985092e-11
1.0487150915e-09
-7.0691253901e-11
1.07450414347e-09
-6.56628145123e-11
1.09787491845e-09
-5.95599644018e-11
1.11844105392e-09
-5.24412443276e-11
1.13585125897e-09
-4.43976333246e-11
1.14980152701e-09
-3.55535720039e-11
1.16004729713e-09
-2.60668142716e-11
1.16641450766e-09
-1.61251587964e-11
1.16880771516e-09
-5.93820331334e-12
1.16721340475e-09
4.27585376982e-12
1.16169761716e-09
1.43057483134e-11
1.15239844723e-09
2.39611808526e-11
1.13951506463e-09
3.30823167653e-11
1.12329547976e-09
4.15431363642e-11
1.10402512771e-09
4.92490629685e-11
1.08201743385e-09
5.61312757218e-11
1.05760640842e-09
6.21406955159e-11
1.03114062898e-09
6.72436650814e-11
1.00297782433e-09
7.14199498198e-11
9.73479405095e-10
7.46627871838e-11
9.43004518253e-10
7.69802875823e-11
9.1190350819e-10
7.83972536098e-11
8.8051100617e-10
7.89564254193e-11
8.49139140067e-10
7.87183690228e-11
8.18071474551e-10
7.77596511586e-11
7.87558240298e-10
7.61694208361e-11
7.57813232827e-10
7.40448868424e-11
7.29012523541e-10
7.14863610644e-11
7.01294895449e-10
6.85925271919e-11
6.74763740199e-10
6.54564437452e-11
6.49490053287e-10
6.21625743346e-11
6.25516137785e-10
5.87849249306e-11
6.02859656079e-10
5.53862032772e-11
5.81517731827e-10
5.20178159499e-11
5.61470879725e-10
4.87204796901e-11
5.42686614828e-10
4.55252292069e-11
5.25122656584e-10
4.24546355425e-11
5.08729693076e-10
3.95240916693e-11
4.9345370662e-10
3.67430648436e-11
4.79237886063e-10
3.41162524297e-11
4.66024164608e-10
3.16446071308e-11
4.53754429059e-10
2.93262187424e-11
4.42371447348e-10
2.71570536717e-11
4.31819559856e-10
2.51315621209e-11
4.22045175743e-10
2.3243167361e-11
4.12997111215e-10
2.14846533702e-11
4.04626801033e-10
1.98484670866e-11
3.96888410093e-10
1.83269505782e-11
3.89738866708e-10
1.69125168596e-11
3.8313783549e-10
1.55977814517e-11
3.7704764356e-10
1.43756600657e-11
3.71433170972e-10
1.32394413607e-11
3.66261713047e-10
1.21828423964e-11
3.61502820253e-10
1.12000534464e-11
3.57128118837e-10
1.02857780224e-11
3.53111113955e-10
9.43527350089e-12
3.49426975221e-10
8.64439739086e-12
3.46052303727e-10
7.90966420403e-12
3.4296487845e-10
7.2283177967e-12
3.40143380178e-10
6.59842399141e-12
3.37567091608e-10
6.01898778173e-12
3.3521557523e-10
5.49009811638e-12
3.33068336001e-10
5.01309992612e-12
3.31104486808e-10
4.59078583318e-12
3.29302453716e-10
4.22758467718e-12
3.2763979121e-10
3.92969262489e-12
3.26093231591e-10
3.70502821316e-12
3.24639176741e-10
3.56275941272e-12
3.23254952184e-10
3.51187020935e-12
3.21921231934e-10
3.55763073487e-12
3.2062572174e-10
3.69356868556e-12
3.19365812477e-10
3.88437840617e-12
4.03596599729e-12
9.63984146422e-10
1.29255422649e-10
9.87846770598e-10
2.67594094446e-10
9.90108683948e-10
3.16295336331e-10
9.72851152946e-10
3.15437710033e-10
9.43013767566e-10
2.92363973133e-10
9.06635542268e-10
2.61476245801e-10
8.67904282847e-10
2.29559215758e-10
8.29461226537e-10
1.99541959436e-10
7.92857991343e-10
1.72500782405e-10
7.58930382308e-10
1.48650643534e-10
7.28063068895e-10
1.27827314827e-10
7.00366385294e-10
1.09719466831e-10
6.75790811175e-10
9.39782317629e-11
6.54199544602e-10
8.02666020319e-11
6.35413659188e-10
6.82793873035e-11
6.19239627802e-10
5.77490059852e-11
6.05485645123e-10
4.84447445244e-11
5.93970913555e-10
4.01692856831e-11
5.84530561781e-10
3.2754366535e-11
5.77017893676e-10
2.60564407798e-11
5.71305040314e-10
1.99527216055e-11
5.67282687468e-10
1.43377341074e-11
5.6485929613e-10
9.12038883265e-12
5.63960070901e-10
4.22153696481e-12
5.64525828164e-10
-4.28049600745e-13
5.66511846464e-10
-4.88932724648e-12
5.69886743366e-10
-9.21630688258e-12
5.74631403595e-10
-1.34571313779e-11
5.80737947823e-10
-1.76549028774e-11
5.8820872889e-10
-2.18482937221e-11
5.97055332142e-10
-2.60719570022e-11
6.07297548605e-10
-3.03567439119e-11
6.189622835e-10
-3.47297276144e-11
6.32082356111e-10
-3.92140272097e-11
6.46695141607e-10
-4.38284203365e-11
6.62840999651e-10
-4.85867299168e-11
6.80561430425e-10
-5.34969698671e-11
6.99896895536e-10
-5.85602380267e-11
7.20884241616e-10
-6.3769353183e-11
7.43553669006e-10
-6.91072496105e-11
7.67925200071e-10
-7.45451686838e-11
7.94004623589e-10
-8.00407256808e-11
8.21778927311e-10
-8.5535981299e-11
8.51211282928e-10
-9.09557110465e-11
8.82235718775e-10
-9.62061352484e-11
9.14751704795e-10
-1.01174436553e-10
9.48618975819e-10
-1.05729429941e-10
9.83653020071e-10
-1.09723736089e-10
1.01962173719e-09
-1.12997713579e-10
1.0562437955e-09
-1.15385211661e-10
1.09318916118e-09
-1.1672092198e-10
1.13008211758e-09
-1.16848787313e-10
1.16650685163e-09
-1.15630662549e-10
1.20201540736e-09
-1.12954329469e-10
1.23613756879e-09
-1.08740117052e-10
1.26839211281e-09
-1.02945754601e-10
1.29829889823e-09
-9.55695573399e-11
1.32539140429e-09
-8.66524297909e-11
1.34922953602e-09
-7.62793386447e-11
1.36941272734e-09
-6.45807917606e-11
1.38559349078e-09
-5.17343083722e-11
1.39749128954e-09
-3.79645928184e-11
1.40490562333e-09
-2.35394800419e-11
1.40772595681e-09
-8.75853226898e-12
1.4059358929e-09
6.06591419922e-12
1.39961040415e-09
2.06312261632e-11
1.38890686906e-09
3.46646985252e-11
1.37405200839e-09
4.79371547306e-11
1.35532752636e-09
6.02675916071e-11
1.33305708637e-09
7.15194733035e-11
1.3075959689e-09
8.15923617396e-11
1.27932321237e-09
9.04134198604e-11
1.24863524678e-09
9.79315987644e-11
1.21594003372e-09
1.04115132216e-10
1.1816509807e-09
1.08951811649e-10
1.14618016667e-09
1.12451075953e-10
1.10993076237e-09
1.14646635718e-10
1.07328894e-09
1.15598229548e-10
1.03661589348e-09
1.15391401543e-10
1.00024072006e-09
1.14134815014e-10
9.64454830353e-10
1.11955305473e-10
9.29508322968e-10
1.08991393598e-10
8.95608467572e-10
1.05386220116e-10
8.62920168652e-10
1.01280833767e-10
8.31568084523e-10
9.68085391737e-11
8.01639972446e-10
9.20907008954e-11
7.73190813125e-10
8.72341014348e-11
7.46247311101e-10
8.23297246399e-11
7.20812444748e-10
7.74527032741e-11
6.96869826379e-10
7.26631201221e-11
6.74387715121e-10
6.8007363142e-11
6.53322593429e-10
6.35197800557e-11
6.33622271133e-10
5.92244365439e-11
6.15228517923e-10
5.51368400309e-11
5.98079250064e-10
5.12655413921e-11
5.82110311124e-10
4.76135660571e-11
5.67256893799e-10
4.41796547792e-11
5.53454651305e-10
4.09593134702e-11
5.4064054563e-10
3.79456836335e-11
5.28753475964e-10
3.51302513576e-11
5.17734726366e-10
3.25034158093e-11
5.07528266367e-10
3.00549384653e-11
4.98080933526e-10
2.77742934099e-11
4.89342521932e-10
2.56509371273e-11
4.81265796635e-10
2.36745142097e-11
4.73806449847e-10
2.18350131976e-11
4.66923011675e-10
2.01228848765e-11
4.60576724949e-10
1.85291335674e-11
4.54731391481e-10
1.70453905749e-11
4.49353194723e-10
1.56639777534e-11
4.44410502294e-10
1.43779683187e-11
4.39873650264e-10
1.31812513075e-11
4.35714710364e-10
1.2068605577e-11
4.31907240668e-10
1.10357886147e-11
4.28426020883e-10
1.00796446176e-11
4.25246774548e-10
9.19823472194e-12
4.22345883757e-10
8.39098932621e-12
4.19700107255e-10
7.65887669235e-12
4.17286322048e-10
7.00457118721e-12
4.1508132267e-10
6.43258410998e-12
4.13061733356e-10
5.94928194142e-12
4.11204116394e-10
5.56264516885e-12
4.09485390532e-10
5.28148533116e-12
4.07883680335e-10
5.11358060259e-12
4.0637959764e-10
5.06171380609e-12
4.0495734611e-10
5.11582069135e-12
4.03602829578e-10
5.23889537666e-12
5.3470406125e-12
9.57616885119e-10
1.09138543566e-10
9.82789786067e-10
2.42421204895e-10
9.95545027424e-10
3.03540105646e-10
9.93130809226e-10
3.17851938284e-10
9.78687962188e-10
3.06806830006e-10
9.56313836772e-10
2.8385038098e-10
9.29456351776e-10
2.56416710516e-10
9.00645651306e-10
2.2835266967e-10
8.71617430837e-10
2.01529012609e-10
8.43506031333e-10
1.76762052693e-10
8.17016498345e-10
1.54316857332e-10
7.92557576172e-10
1.3417839832e-10
7.70338713669e-10
1.16197103318e-10
7.50438759034e-10
1.00166565384e-10
7.32853734705e-10
8.58644199454e-11
7.17529623032e-10
7.30731254872e-11
7.04384599483e-10
6.15897753421e-11
6.93323921223e-10
5.12299705604e-11
6.84249746763e-10
4.18285468744e-11
6.77067481871e-10
3.32387107169e-11
6.7168976109e-10
2.5330446507e-11
6.68038831301e-10
1.79886669931e-11
6.66047864015e-10
1.11113581039e-11
6.65661555777e-10
4.60784598725e-12
6.66836260245e-10
-1.60275455784e-12
6.6953980684e-10
-7.59287567166e-12
6.73751120749e-10
-1.34276240063e-11
6.79459710844e-10
-1.91657260992e-11
6.86665054016e-10
-2.48602520855e-11
6.95375892808e-10
-3.05591399303e-11
7.05609445822e-10
-3.63055187429e-11
7.17390517213e-10
-4.2137825237e-11
7.30750480971e-10
-4.80897023633e-11
7.45726106299e-10
-5.418966439e-11
7.62358182253e-10
-6.04605087602e-11
7.80689892396e-10
-6.69184528547e-11
8.00764884142e-10
-7.35719743958e-11
8.22624973062e-10
-8.04203393312e-11
8.46307421025e-10
-8.74518127176e-11
8.71841730181e-10
-9.46415690675e-11
8.99245904801e-10
-1.01949351878e-10
9.28522153234e-10
-1.09316980479e-10
9.59652036062e-10
-1.16665867834e-10
9.92591118811e-10
-1.23894794398e-10
1.02726326096e-09
-1.30878274514e-10
1.06355476967e-09
-1.37465938549e-10
1.10130876142e-09
-1.43483410901e-10
1.14032019573e-09
-1.48735155314e-10
1.18033214619e-09
-1.53009644581e-10
1.22103392042e-09
-1.56086962072e-10
1.26206158999e-09
-1.57748563492e-10
1.30300131797e-09
-1.57788483262e-10
1.34339558257e-09
-1.56024891577e-10
1.38275204915e-09
-1.52310757531e-10
1.42055454189e-09
-1.46542569092e-10
1.45627541545e-09
-1.38666586241e-10
1.48938867398e-09
-1.28682773879e-10
1.51938338681e-09
-1.16647101846e-10
1.54577722149e-09
-1.02673135198e-10
1.56813023065e-09
-8.69337669158e-11
1.58605934119e-09
-6.96633904813e-11
1.59925385196e-09
-5.11590820268e-11
1.60749089252e-09
-3.1776506847e-11
1.61064765985e-09
-1.19152941961e-11
1.60870666662e-09
8.00690454725e-12
1.60175238168e-09
2.75855005333e-11
1.58996036956e-09
4.64566935598e-11
1.57358161887e-09
6.43158832508e-11
1.55292565656e-09
8.09235281674e-11
1.52834591259e-09
9.60991892546e-11
1.50022891106e-09
1.09709334173e-10
1.46898659867e-09
1.21655703145e-10
1.4350502429e-09
1.31867926458e-10
1.39886465344e-09
1.40300695589e-10
1.36088191972e-09
1.469345221e-10
1.32155413793e-09
1.51778837981e-10
1.281324992e-09
1.54875765864e-10
1.24062057472e-09
1.56302635348e-10
1.19984024878e-09
1.56171720473e-10
1.15934848746e-09
1.54626573865e-10
1.11946850257e-09
1.5183529238e-10
1.08047816106e-09
1.47981741491e-10
1.04260832692e-09
1.43256064776e-10
1.00604344147e-09
1.37845733549e-10
9.70923933588e-10
1.31928064773e-10
9.37349949216e-10
1.25664705885e-10
9.0538588877e-10
1.19198184854e-10
8.75065306997e-10
1.12650331193e-10
8.46395826874e-10
1.06122209414e-10
8.19363820968e-10
9.96951527548e-11
7.93938704012e-10
9.34325070272e-11
7.70076753065e-10
8.7381757693e-11
7.47724424992e-10
8.15767906738e-11
7.26821177801e-10
7.60401123193e-11
7.07301825535e-10
7.07849175304e-11
6.8909846952e-10
6.58169445147e-11
6.72142054759e-10
6.11360904083e-11
6.56363601303e-10
5.67377861249e-11
6.41695158593e-10
5.2614143831e-11
6.28070526926e-10
4.8754898793e-11
6.15425785703e-10
4.51481711189e-11
6.03699662998e-10
4.17810736304e-11
5.92833776267e-10
3.86401910631e-11
5.827727692e-10
3.57119536757e-11
5.73464365664e-10
3.29829259038e-11
5.64859357742e-10
3.04400280681e-11
5.56911541712e-10
2.80707067749e-11
5.49577612759e-10
2.5863067425e-11
5.42817026951e-10
2.38059804451e-11
5.36591836782e-10
2.18891712522e-11
5.30866505062e-10
2.01033027427e-11
5.25607700567e-10
1.84400579741e-11
5.20784078099e-10
1.68922297728e-11
5.16366045201e-10
1.54538228693e-11
5.12325518152e-10
1.41201727194e-11
5.08635670924e-10
1.28880827531e-11
5.05270683104e-10
1.17559777463e-11
5.02205496457e-10
1.07240637709e-11
4.99415595435e-10
9.79447250765e-12
4.96876834508e-10
8.97134522647e-12
4.94565344388e-10
8.26077217641e-12
4.92457556392e-10
7.67043324666e-12
4.90530378531e-10
7.20866330315e-12
4.88761502943e-10
6.88245640914e-12
4.87129620124e-10
6.69359699796e-12
4.85613692713e-10
6.6317485647e-12
4.84189021164e-10
6.6635673523e-12
6.71964741571e-12
9.5301823216e-10
9.36203173577e-11
9.76792599997e-10
2.18646848339e-10
9.94441202676e-10
2.85891513536e-10
1.00123622595e-09
3.11056924955e-10
9.97796896698e-10
3.10246168988e-10
9.86525445364e-10
2.95121841975e-10
9.69957904406e-10
2.7298426114e-10
9.50221610015e-10
2.48088973735e-10
9.28943409328e-10
2.22807222944e-10
9.07306678673e-10
1.98398792912e-10
8.86142171492e-10
1.75481373934e-10
8.66014086075e-10
1.54306492948e-10
8.47290983418e-10
1.34920214909e-10
8.30200914898e-10
1.17256642493e-10
8.14873028474e-10
1.01192314538e-10
8.01368428512e-10
8.65777331177e-11
7.89702794365e-10
7.3255416575e-11
7.7986280218e-10
6.10699691565e-11
7.71817943856e-10
4.98734108418e-11
7.65528955545e-10
3.95277038022e-11
7.60953764329e-10
2.99056415275e-11
7.58051626999e-10
2.08908070556e-11
7.56785956879e-10
1.23770297826e-11
7.57126200904e-10
4.26760225255e-12
7.59049029967e-10
-3.52558468902e-12
7.62539020112e-10
-1.10828683187e-11
7.67588977941e-10
-1.84775858311e-11
7.74199989993e-10
-2.57767436812e-11
7.82381252967e-10
-3.30415221385e-11
7.92149721377e-10
-4.0327616954e-11
8.03529589079e-10
-4.76853965384e-11
8.16551605232e-10
-5.51598528767e-11
8.31252212207e-10
-6.27903220811e-11
8.47672481513e-10
-7.06099475131e-11
8.65856813818e-10
-7.86448557222e-11
8.85851360071e-10
-8.69130143228e-11
9.077021129e-10
-9.54227426607e-11
9.31452611164e-10
-1.04170852872e-10
9.57141196822e-10
-1.13140413067e-10
9.8479776355e-10
-1.22298149443e-10
1.01443994317e-09
-1.31591543615e-10
1.04606869228e-09
-1.40945739694e-10
1.0796632719e-09
-1.50260455058e-10
1.11517566277e-09
-1.59407189909e-10
1.1525245339e-09
-1.68227146885e-10
1.19158898561e-09
-1.7653038774e-10
1.23220241952e-09