/*--------------------------------*- C++ -*----------------------------------*\
  =========                 |
  \\      /  F ield         | OpenFOAM: The Open Source CFD Toolbox
   \\    /   O peration     | Website:  https://openfoam.org
    \\  /    A nd           | Version:  7
     \\/     M anipulation  |
\*---------------------------------------------------------------------------*/
FoamFile
{
    version     2.0;
    format      ascii;
    class       volVectorField;
    location    "900";
    object      U;
}
// * * * * * * * * * * * * * * * * * * * * * * * * * * * * * * * * * * * * * //

dimensions      [0 1 -1 0 0 0 0];

internalField   nonuniform List<vector> 
8192
(
(0.0010434515082 0.000156548491797 0)
(0.000759293205516 0.000127609814655 0)
(0.000549285796916 8.23976014063e-05 0)
(0.000414045319782 5.28428828922e-05 0)
(0.000326266902187 3.4935541576e-05 0)
(0.000267296420214 2.40349471747e-05 0)
(0.00022606506411 1.7196415673e-05 0)
(0.000196132363868 1.27362913261e-05 0)
(0.000173688233998 9.70784533885e-06 0)
(0.000156408629603 7.57176589066e-06 0)
(0.000142824154116 6.0127164533e-06 0)
(0.000131971133001 4.8403115128e-06 0)
(0.000123195223553 3.93560474715e-06 0)
(0.00011603791548 3.22171006181e-06 0)
(0.000110168923118 2.64728892401e-06 0)
(0.000105344629198 2.17701146905e-06 0)
(0.000101381740249 1.78588376663e-06 0)
(9.81400882057e-05 1.45577434112e-06 0)
(9.55110934848e-05 1.17322619048e-06 0)
(9.3409831873e-05 9.28040946474e-07 0)
(9.17694567903e-05 7.12339350262e-07 0)
(9.05371992705e-05 5.19923049714e-07 0)
(8.96714490865e-05 3.45831666328e-07 0)
(8.91395923749e-05 1.86029220857e-07 0)
(8.89163888226e-05 3.71781552179e-08 0)
(8.89827403362e-05 -1.03526182548e-07 0)
(8.9324747277e-05 -2.38477577719e-07 0)
(8.99329782023e-05 -3.69750426323e-07 0)
(9.08019007671e-05 -4.99169407974e-07 0)
(9.19294340628e-05 -6.28361260299e-07 0)
(9.33165902842e-05 -7.58792322864e-07 0)
(9.49671797052e-05 -8.91794312182e-07 0)
(9.68875565975e-05 -1.0285794814e-06 0)
(9.90863853338e-05 -1.1702456536e-06 0)
(0.000101574406113 -1.3177708047e-06 0)
(0.000104364178737 -1.47199653796e-06 0)
(0.000107469781013 -1.63359923544e-06 0)
(0.000110906435927 -1.80304767668e-06 0)
(0.000114690039206 -1.98054581331e-06 0)
(0.000118836556986 -2.16596009968e-06 0)
(0.000123361262996 -2.35873168247e-06 0)
(0.000128277787375 -2.55777583947e-06 0)
(0.000133596956604 -2.76137366768e-06 0)
(0.000139325418011 -2.96706495245e-06 0)
(0.000145464064303 -3.17155534346e-06 0)
(0.000152006304394 -3.37065545535e-06 0)
(0.000158936264785 -3.55927233789e-06 0)
(0.000166227046843 -3.73147387559e-06 0)
(0.000173839201379 -3.88064172547e-06 0)
(0.000181719602761 -3.99971786226e-06 0)
(0.000189800898914 -4.0815339773e-06 0)
(0.000198001674705 -4.11919540364e-06 0)
(0.000206227395361 -4.10647727972e-06 0)
(0.000214372108028 -4.03818646955e-06 0)
(0.000222320795872 -3.91045223573e-06 0)
(0.000229952226955 -3.72093028007e-06 0)
(0.000237142136662 -3.46893231071e-06 0)
(0.00024376663013 -3.1555164134e-06 0)
(0.00024970577133 -2.7835833798e-06 0)
(0.000254847401679 -2.35800985652e-06 0)
(0.000259091245218 -1.88580180432e-06 0)
(0.00026235324504 -1.37617222959e-06 0)
(0.000264569815387 -8.40379156122e-07 0)
(0.000265701385388 -2.9117926601e-07 0)
(0.000265734466299 2.58102225921e-07 0)
(0.00026468166956 7.94690621064e-07 0)
(0.000262579600866 1.30736664423e-06 0)
(0.000259485094137 1.78712159399e-06 0)
(0.000255470617616 2.22733004374e-06 0)
(0.000250619776862 2.62348021359e-06 0)
(0.000245023606668 2.97265472631e-06 0)
(0.000238777914347 3.27299846516e-06 0)
(0.000231981532234 3.52334156765e-06 0)
(0.000224735110064 3.7230365082e-06 0)
(0.000217140043321 3.87198508245e-06 0)
(0.000209297223638 3.97078931127e-06 0)
(0.000201305447142 4.02094264838e-06 0)
(0.000193259482855 4.02497865108e-06 0)
(0.000185247949949 3.98651352668e-06 0)
(0.000177351244638 3.91015390262e-06 0)
(0.000169639776903 3.80127927682e-06 0)
(0.000162172728433 3.66573830959e-06 0)
(0.000154997450952 3.50951219572e-06 0)
(0.00014814951904 3.33839675219e-06 0)
(0.000141653361359 3.15774197557e-06 0)
(0.000135523334518 2.97226981237e-06 0)
(0.00012976507954 2.78597381814e-06 0)
(0.000124377006358 2.60209144552e-06 0)
(0.00011935177735 2.42313275088e-06 0)
(0.000114677695474 2.25094705067e-06 0)
(0.000110339937942 2.08681075999e-06 0)
(0.000106321606639 1.93152278238e-06 0)
(0.000102604589703 1.78549797099e-06 0)
(9.91702442172e-05 1.64885254426e-06 0)
(9.59999190955e-05 1.52147848237e-06 0)
(9.30753413243e-05 1.40310576489e-06 0)
(9.03788894328e-05 1.29335290585e-06 0)
(8.78937766105e-05 1.19176677073e-06 0)
(8.5604163326e-05 1.09785325198e-06 0)
(8.34952163101e-05 1.01110023505e-06 0)
(8.15531277283e-05 9.30994432736e-07 0)
(7.97651056176e-05 8.5703329595e-07 0)
(7.81193441919e-05 7.88733223559e-07 0)
(7.66049805964e-05 7.25634913154e-07 0)
(7.52120429538e-05 6.67306708369e-07 0)
(7.39313931926e-05 6.13346480034e-07 0)
(7.27546669808e-05 5.63382628852e-07 0)
(7.16742121973e-05 5.17074556093e-07 0)
(7.06830265455e-05 4.7411304057e-07 0)
(6.97746942439e-05 4.34220795371e-07 0)
(6.89433210029e-05 3.97153615251e-07 0)
(6.81834657955e-05 3.62702445128e-07 0)
(6.74900670232e-05 3.30696907951e-07 0)
(6.68583595916e-05 3.01010875879e-07 0)
(6.62837778498e-05 2.73571027881e-07 0)
(6.57618371838e-05 2.48369645092e-07 0)
(6.52879837689e-05 2.25483651064e-07 0)
(6.48573969945e-05 2.0510290467e-07 0)
(6.44647211105e-05 1.87572681665e-07 0)
(6.41036897103e-05 1.73458361105e-07 0)
(6.37665850766e-05 1.63645873489e-07 0)
(6.34434381976e-05 1.59500587527e-07 0)
(6.31208157831e-05 1.63121422689e-07 0)
(6.27799532694e-05 1.77740751608e-07 0)
(6.23939152099e-05 2.08297107432e-07 0)
(6.19237199338e-05 2.6189819099e-07 0)
(6.13154916529e-05 3.46330344745e-07 0)
(6.0524758279e-05 4.44403413484e-07 0)
(0.00121016180975 0.000302935177742 0)
(0.0011603008822 0.000315242374033 0)
(0.00102697960118 0.000238093753584 0)
(0.0008876853487 0.000171681481242 0)
(0.000767237793823 0.000124322935833 0)
(0.000669105517238 9.17503313559e-05 0)
(0.00059057832443 6.92396002121e-05 0)
(0.000527825294551 5.33788567481e-05 0)
(0.000477405760171 4.19289640756e-05 0)
(0.000436581906936 3.34541247352e-05 0)
(0.000403266338781 2.70304211769e-05 0)
(0.000375887825926 2.20541605679e-05 0)
(0.000353262846604 1.81226640501e-05 0)
(0.000334493658748 1.49611659431e-05 0)
(0.000318892685989 1.23778169773e-05 0)
(0.000305927849128 1.02356324548e-05 0)
(0.000295183317829 8.43470062359e-06 0)
(0.000286331265521 6.90067865845e-06 0)
(0.000279111393948 5.57720412212e-06 0)
(0.000273315944546 4.42078902272e-06 0)
(0.000268778607171 3.39731768646e-06 0)
(0.000265366221967 2.47960028794e-06 0)
(0.000262972504217 1.64563406773e-06 0)
(0.000261513250766 8.77347527099e-07 0)
(0.000260922643451 1.59680116738e-07 0)
(0.000261150372984 -5.20100877218e-07 0)
(0.000262159380363 -1.17290987168e-06 0)
(0.000263924065891 -1.80822808365e-06 0)
(0.000266428854123 -2.43439665459e-06 0)
(0.000269667026405 -3.05883402606e-06 0)
(0.00027363974854 -3.68819231994e-06 0)
(0.000278355232785 -4.32846193214e-06 0)
(0.00028382798022 -4.98502917455e-06 0)
(0.000290078052711 -5.66268862797e-06 0)
(0.000297130324225 -6.36560935887e-06 0)
(0.00030501365962 -7.0972523129e-06 0)
(0.000313759966201 -7.86023492377e-06 0)
(0.000323403059883 -8.6561386677e-06 0)
(0.000333977285166 -9.48525610877e-06 0)
(0.00034551582775 -1.0346276695e-05 0)
(0.000358048662661 -1.12359155352e-05 0)
(0.000371600092083 -1.21484975691e-05 0)
(0.000386185848514 -1.30755209888e-05 0)
(0.000401809773684 -1.40052386815e-05 0)
(0.00041846013369 -1.49223131081e-05 0)
(0.000436105696105 -1.58076159299e-05 0)
(0.000454691771038 -1.66382534979e-05 0)
(0.000474136496254 -1.73878971333e-05 0)
(0.00049432771082 -1.80274760725e-05 0)
(0.000515120793477 -1.85262481871e-05 0)
(0.000536337821675 -1.88532018343e-05 0)
(0.000557768324611 -1.89786746425e-05 0)
(0.0005791717634 -1.88760220391e-05 0)
(0.000600281699614 -1.85231532392e-05 0)
(0.000620811451693 -1.79037883304e-05 0)
(0.000640460933044 -1.70083722686e-05 0)
(0.000658924345665 -1.58346836328e-05 0)
(0.000675898469413 -1.4388261368e-05 0)
(0.000691091404928 -1.26828050916e-05 0)
(0.000704231733136 -1.07406503023e-05 0)
(0.000715078053482 -8.59324509988e-06 0)
(0.000723428656568 -6.28127024568e-06 0)
(0.000729130647187 -3.85380089062e-06 0)
(0.000732087330345 -1.36599107008e-06 0)
(0.000732262467977 1.12469304308e-06 0)
(0.000729680399178 3.56294117194e-06 0)
(0.000724421914273 5.89962491488e-06 0)
(0.000716616746599 8.09447409384e-06 0)
(0.00070643421939 1.01169009923e-05 0)
(0.000694073760932 1.19451139936e-05 0)
(0.000679756607661 1.3564238316e-05 0)
(0.000663719265311 1.49643344842e-05 0)
(0.00064620857396 1.61389576945e-05 0)
(0.000627477796104 1.70844955428e-05 0)
(0.00060778305232 1.78002108508e-05 0)
(0.000587379560305 1.82887511984e-05 0)
(0.000566517384842 1.85568127185e-05 0)
(0.000545436702228 1.8615641586e-05 0)
(0.000524362851625 1.84811280737e-05 0)
(0.000503501619577 1.81733799625e-05 0)
(0.000483035245649 1.77158084772e-05 0)
(0.00046311955296 1.71338749228e-05 0)
(0.000443882439298 1.64537028195e-05 0)
(0.000425423767621 1.57007572908e-05 0)
(0.000407816519427 1.48987461147e-05 0)
(0.000391108952336 1.40688291124e-05 0)
(0.000375327445357 1.32291559489e-05 0)
(0.000360479714797 1.23947015736e-05 0)
(0.00034655812426 1.15773386981e-05 0)
(0.000333542874296 1.07860763694e-05 0)
(0.000321404924985 1.00273974753e-05 0)
(0.000310108566473 9.30563971245e-06 0)
(0.000299613602694 8.62337915599e-06 0)
(0.000289877149999 7.98178950792e-06 0)
(0.000280855076458 7.38096181058e-06 0)
(0.000272503121103 6.82017805286e-06 0)
(0.000264777738172 6.29813810242e-06 0)
(0.000257636711877 5.81314294931e-06 0)
(0.000251039584372 5.36323925303e-06 0)
(0.000244947934942 4.94633084424e-06 0)
(0.0002393255431 4.56026292551e-06 0)
(0.000234138462821 4.20288421233e-06 0)
(0.00022935503009 3.87209172857e-06 0)
(0.000224945821361 3.5658622128e-06 0)
(0.000220883576597 3.2822735332e-06 0)
(0.00021714309718 3.01951885864e-06 0)
(0.000213701126127 2.77591594291e-06 0)
(0.000210536215667 2.54991344071e-06 0)
(0.000207628585098 2.34009599427e-06 0)
(0.000204959970047 2.14518962139e-06 0)
(0.000202513462477 1.96406897954e-06 0)
(0.000200273339113 1.79576812831e-06 0)
(0.000198224874083 1.63949673412e-06 0)
(0.000196354129564 1.4946640637e-06 0)
(0.000194647715795 1.36091388117e-06 0)
(0.000193092508957 1.23817439266e-06 0)
(0.000191675312003 1.12672901981e-06 0)
(0.000190382439715 1.02731607209e-06 0)
(0.000189199205595 9.41268782211e-07 0)
(0.000188109286633 8.70711742701e-07 0)
(0.000187093947466 8.18835338354e-07 0)
(0.000186131131258 7.90273269787e-07 0)
(0.000185194504198 7.91597404701e-07 0)
(0.000184252758861 8.31872082403e-07 0)
(0.000183270061473 9.2290110009e-07 0)
(0.000182209983579 1.07756776053e-06 0)
(0.000181049617915 1.29925554771e-06 0)
(0.000179808628937 1.52320148468e-06 0)
(0.00122477848245 0.000267994893133 0)
(0.00124109111145 0.000383730979509 0)
(0.00119624345696 0.00034777411227 0)
(0.00111359161871 0.000283947240474 0)
(0.00102075968226 0.000225336694212 0)
(0.000931445635917 0.000178182921876 0)
(0.000851074333131 0.000141705531192 0)
(0.000781033911218 0.000113706403504 0)
(0.000720950500859 9.2104388057e-05 0)
(0.000669794459407 7.52586214341e-05 0)
(0.000626384596144 6.19513817822e-05 0)
(0.000589599517548 5.12968170649e-05 0)
(0.000558452506923 4.26520227798e-05 0)
(0.00053210600925 3.55475175017e-05 0)
(0.000509861631311 2.96368402127e-05 0)
(0.00049114203831 2.46610623619e-05 0)
(0.00047547183521 2.04240274355e-05 0)
(0.000462460202036 1.67750585423e-05 0)
(0.000451786113077 1.35968047432e-05 0)
(0.000443186149969 1.07966195119e-05 0)
(0.000436444613261 8.30037839534e-06 0)
(0.000431385559072 6.04799450385e-06 0)
(0.000427866402966 3.99012758879e-06 0)
(0.000425772780919 2.08574169993e-06 0)
(0.000425014410818 3.00273873253e-07 0)
(0.000425521746668 -1.39575112721e-06 0)
(0.000427243256671 -3.02776962252e-06 0)
(0.000430143191381 -4.61798251446e-06 0)
(0.000434199734097 -6.18596817821e-06 0)
(0.000439403440379 -7.74913678783e-06 0)
(0.00044575588664 -9.3230539522e-06 0)
(0.000453268456833 -1.09216504792e-05 0)
(0.000461961200871 -1.25573269479e-05 0)
(0.000471861700091 -1.42409557875e-05 0)
(0.000483003874333 -1.59817787232e-05 0)
(0.000495426662745 -1.77871941615e-05 0)
(0.000509172507042 -1.96624270132e-05 0)
(0.000524285562752 -2.16100736504e-05 0)
(0.000540809562478 -2.36295173814e-05 0)
(0.000558785257395 -2.57162166762e-05 0)
(0.000578247371692 -2.7860880013e-05 0)
(0.0005992210228 -3.00485594297e-05 0)
(0.000621717591318 -3.22577196313e-05 0)
(0.000645730072232 -3.44593707611e-05 0)
(0.000671228005021 -3.66163870893e-05 0)
(0.000698152164238 -3.86831652359e-05 0)
(0.000726409288515 -4.06057934896e-05 0)
(0.000755867223241 -4.23228959157e-05 0)
(0.000786350931274 -4.37672681084e-05 0)
(0.000817639863565 -4.48683296634e-05 0)
(0.000849467153323 -4.5555288545e-05 0)
(0.000881520989845 -4.5760770958e-05 0)
(0.000913448346385 -4.54245600123e-05 0)
(0.000944861012435 -4.44970542721e-05 0)
(0.000975343666989 -4.29421312094e-05 0)
(0.00100446358447 -4.07392690677e-05 0)
(0.00103178152673 -3.7884989422e-05 0)
(0.00105686344381 -3.43938544176e-05 0)
(0.00107929274135 -3.0299316927e-05 0)
(0.00109868300217 -2.56546165953e-05 0)
(0.0011146910691 -2.05335756402e-05 0)
(0.00112703017272 -1.50305791831e-05 0)
(0.0011354822482 -9.25851618124e-06 0)
(0.00113990791563 -3.34361110289e-06 0)
(0.00114025229733 2.58278213372e-06 0)
(0.00113654534627 8.39383421129e-06 0)
(0.00112889654221 1.39759587381e-05 0)
(0.00111748507837 1.92346878125e-05 0)
(0.00110254752543 2.40966645564e-05 0)
(0.0010843651839 2.85080318632e-05 0)
(0.00106325282589 3.24307007887e-05 0)
(0.0010395495496 3.58383506676e-05 0)
(0.00101361154781 3.8713489008e-05 0)
(0.00098580608432 4.1046057597e-05 0)
(0.000956505883993 4.28334458533e-05 0)
(0.000926083307775 4.40814413201e-05 0)
(0.000894903982628 4.48054867874e-05 0)
(0.000863319913111 4.50315922538e-05 0)
(0.000831662432705 4.47963919814e-05 0)
(0.000800235567352 4.41461094586e-05 0)
(0.000769310431628 4.31344981327e-05 0)
(0.000739121167354 4.18200658383e-05 0)
(0.000709862719672 4.02630111743e-05 0)
(0.000681690495833 3.85222965016e-05 0)
(0.000654721729906 3.6653186661e-05 0)
(0.000629038221184 3.47054427481e-05 0)
(0.000604690038898 3.27222215891e-05 0)
(0.000581699782145 3.07396236181e-05 0)
(0.00056006703175 2.87867669264e-05 0)
(0.00053977270649 2.688624022e-05 0)
(0.000520783119949 2.5054792398e-05 0)
(0.000503053612317 2.33041385129e-05 0)
(0.000486531696191 2.16417911806e-05 0)
(0.000471159704211 2.00718552103e-05 0)
(0.000456876959857 1.85957481121e-05 0)
(0.000443621513212 1.72128279868e-05 0)
(0.000431331493975 1.59209239149e-05 0)
(0.000419946137272 1.47167724195e-05 0)
(0.000409406536332 1.35963687221e-05 0)
(0.000399656171813 1.25552436644e-05 0)
(0.00039064126175 1.15886779522e-05 0)
(0.000382310969858 1.06918647592e-05 0)
(0.000374617503694 9.86003089003e-06 0)
(0.000367516128428 9.08852529934e-06 0)
(0.00036096511676 8.37288265581e-06 0)
(0.000354925651029 7.70886832138e-06 0)
(0.000349361689571 7.09251025436e-06 0)
(0.000344239806036 6.52012240454e-06 0)
(0.000339529007439 5.98832369562e-06 0)
(0.000335200534148 5.49405618844e-06 0)
(0.000331227642722 5.03460596308e-06 0)
(0.000327585370402 4.60763020771e-06 0)
(0.000324250278079 4.21119439162e-06 0)
(0.000321200166717 3.84382384125e-06 0)
(0.000318413760537 3.50457492326e-06 0)
(0.000315870349047 3.19313199245e-06 0)
(0.000313549379748 2.9099375403e-06 0)
(0.000311429995141 2.6563639628e-06 0)
(0.000309490513836 2.43493556642e-06 0)
(0.000307707870366 2.24960646289e-06 0)
(0.000306057060317 2.10608882922e-06 0)
(0.000304510702692 2.01219266247e-06 0)
(0.000303038960128 1.97804692257e-06 0)
(0.000301610303302 2.01582445686e-06 0)
(0.000300194043244 2.13790647479e-06 0)
(0.000298766257672 2.35042670307e-06 0)
(0.000297320435927 2.63258517046e-06 0)
(0.000295875480555 2.8758172551e-06 0)
(0.00122193489045 0.00022128152761 0)
(0.0012534359157 0.000382630712721 0)
(0.00125120338451 0.000395954593017 0)
(0.001213678059 0.000355943950208 0)
(0.00115588369597 0.00030396630976 0)
(0.00109022080959 0.000254530264512 0)
(0.0010241580939 0.000211792232413 0)
(0.000961651113708 0.000176167129789 0)
(0.000904520518006 0.000146857693257 0)
(0.000853382902632 0.000122798998436 0)
(0.000808215724086 0.000102988071808 0)
(0.000768683411415 8.65775432384e-05 0)
(0.000734319084669 7.28826584832e-05 0)
(0.000704622217446 6.1360270625e-05 0)
(0.000679108557764 5.15821479169e-05 0)
(0.000657333507792 4.32104199538e-05 0)
(0.000638901108696 3.59772933236e-05 0)
(0.000623465490201 2.96690644068e-05 0)
(0.000610728604526 2.41137922379e-05 0)
(0.000600436334444 1.91718824162e-05 0)
(0.00059237408945 1.47289127391e-05 0)
(0.000586362458673 1.06901588707e-05 0)
(0.000582253188013 6.97640181593e-06 0)
(0.000579925585531 3.52070182189e-06 0)
(0.00057928337269 2.65904447688e-07 0)
(0.000580251954591 -2.83729377773e-06 0)
(0.000582776059824 -5.83183857853e-06 0)
(0.000586817697729 -8.75548448926e-06 0)
(0.000592354376535 -1.16416878218e-05 0)
(0.00059937752024 -1.45202687612e-05 0)
(0.000607891025515 -1.74178763467e-05 0)
(0.000617909899471 -2.03582758421e-05 0)
(0.000629458917538 -2.33624675519e-05 0)
(0.000642571238023 -2.64486383817e-05 0)
(0.000657286906179 -2.96319409321e-05 0)
(0.000673651176184 -3.29240908744e-05 0)
(0.000691712574958 -3.63327710814e-05 0)
(0.000711520628256 -3.98608325438e-05 0)
(0.000733123168444 -4.3505287595e-05 0)
(0.000756563146939 -4.72561032766e-05 0)
(0.000781874885131 -5.10948225024e-05 0)
(0.00080907971917 -5.4993070912e-05 0)
(0.000838181029945 -5.89110476113e-05 0)
(0.000869158703724 -6.279614822e-05 0)
(0.000901963143506 -6.6581922923e-05 0)
(0.000936509046128 -7.01876215216e-05 0)
(0.000972669269998 -7.35186050078e-05 0)
(0.00101026923081 -7.64678890263e-05 0)
(0.00104908235661 -7.89190077036e-05 0)
(0.00108882718121 -8.07502362448e-05 0)
(0.00112916662671 -8.18399978739e-05 0)
(0.00116970990206 -8.20730468318e-05 0)
(0.00121001722837 -8.13468346573e-05 0)
(0.00124960732797 -7.95774092722e-05 0)
(0.00128796734867 -7.67043141606e-05 0)
(0.00132456471058 -7.26942295758e-05 0)
(0.00135886031039 -6.75434393877e-05 0)
(0.00139032259963 -6.12794866802e-05 0)
(0.00141844222231 -5.39624915849e-05 0)
(0.00144274708025 -4.56864614772e-05 0)
(0.00146281778303 -3.65804184272e-05 0)
(0.00147830324745 -2.68082423008e-05 0)
(0.00148893555507 -1.65651960764e-05 0)
(0.00149454222261 -6.06924941935e-06 0)
(0.00149505351674 4.45273772925e-06 0)
(0.00149050305402 1.4781262581e-05 0)
(0.00148102148121 2.47188562132e-05 0)
(0.00146682464759 3.41000180424e-05 0)
(0.00144819874841 4.27947008809e-05 0)
(0.00142548518878 5.0705798383e-05 0)
(0.00139906723939 5.77631336609e-05 0)
(0.00136935925905 6.39170597787e-05 0)
(0.00133679810394 6.91338185333e-05 0)
(0.00130183581012 7.3393366447e-05 0)
(0.00126493262683 7.66894038826e-05 0)
(0.00122654971094 7.90308634857e-05 0)
(0.00118714113692 8.04438590276e-05 0)
(0.00114714528919 8.09730415872e-05 0)
(0.00110697609359 8.06815336089e-05 0)
(0.00106701479336 7.96490601402e-05 0)
(0.0010276030175 7.79683982674e-05 0)
(0.0009890377428 7.57406568042e-05 0)
(0.000951568484075 7.30700916318e-05 0)
(0.000915396748153 7.00591533658e-05 0)
(0.000880677526815 6.68043065188e-05 0)
(0.000847522427831 6.33929310222e-05 0)
(0.000816003962286 5.9901391414e-05 0)
(0.000786160508073 5.63941835873e-05 0)
(0.00075800152826 5.29239631872e-05 0)
(0.000731512711393 4.95322179029e-05 0)
(0.000706660796514 4.62503523751e-05 0)
(0.000683397933704 4.31009883301e-05 0)
(0.000661665503783 4.00993286639e-05 0)
(0.000641397375806 3.72544797465e-05 0)
(0.000622522619317 3.4570666339e-05 0)
(0.000604967712429 3.20483042626e-05 0)
(0.000588658299947 2.96849187134e-05 0)
(0.000573520560901 2.74759105908e-05 0)
(0.000559482244611 2.54151824784e-05 0)
(0.000546473430783 2.34956401662e-05 0)
(0.000534427063653 2.17095876163e-05 0)
(0.000523279303838 2.00490327783e-05 0)
(0.000512969735121 1.85059207551e-05 0)
(0.000503441457153 1.70723087898e-05 0)
(0.000494641089407 1.57404959601e-05 0)
(0.000486518706592 1.45031183848e-05 0)
(0.0004790277213 1.33532194111e-05 0)
(0.000472124725772 1.22843026536e-05 0)
(0.000465769301312 1.12903749476e-05 0)
(0.000459923801018 1.03659852967e-05 0)
(0.000454553108987 9.50626563937e-06 0)
(0.000449624377073 8.70697885467e-06 0)
(0.000445106738527 7.96457965603e-06 0)
(0.000440970996593 7.27629404332e-06 0)
(0.000437189285522 6.64022342447e-06 0)
(0.000433734701943 6.05547942518e-06 0)
(0.000430580906777 5.52235496604e-06 0)
(0.000427701703188 5.04253474809e-06 0)
(0.000425070606597 4.61934239911e-06 0)
(0.000422660441935 4.25800727469e-06 0)
(0.000420443036753 3.96590264429e-06 0)
(0.000418389134593 3.75263803663e-06 0)
(0.000416468741332 3.6297369647e-06 0)
(0.000414652242511 3.60929006005e-06 0)
(0.000412912757835 3.70018615245e-06 0)
(0.000411230050351 3.89864109229e-06 0)
(0.000409594581899 4.16566214744e-06 0)
(0.000408002241123 4.38003742216e-06 0)
(0.00121694985371 0.000182396790918 0)
(0.00124917178689 0.000357792513036 0)
(0.00126589149091 0.000406305648177 0)
(0.00125629429561 0.000392715442506 0)
(0.00122615354913 0.00035512995261 0)
(0.00118377555829 0.00031140752413 0)
(0.00113570548807 0.000269047783845 0)
(0.00108631392601 0.000230810145746 0)
(0.00103828429944 0.000197374924676 0)
(0.000993144559136 0.000168559147708 0)
(0.000951675808769 0.000143863876238 0)
(0.000914194850681 0.000122715034001 0)
(0.00088074060574 0.000104563763335 0)
(0.000851193827697 8.89228343051e-05 0)
(0.000825352450425 7.53746436317e-05 0)
(0.000802978103673 6.35673424082e-05 0)
(0.000783824174672 5.32067192406e-05 0)
(0.000767652197554 4.40472530191e-05 0)
(0.000754240944215 3.58837600087e-05 0)
(0.000743391011492 2.85441330796e-05 0)
(0.000734926677754 2.18832545075e-05 0)
(0.000728696145781 1.57779914338e-05 0)
(0.000724570869503 1.01231254814e-05 0)
(0.000722444394899 4.82806208568e-06 0)
(0.000722230975402 -1.85819208522e-07 0)
(0.000723864111762 -4.98728678294e-06 0)
(0.000727295097492 -9.63693765483e-06 0)
(0.000732491614056 -1.4188543714e-05 0)
(0.000739436384908 -1.86900847318e-05 0)
(0.000748125873097 -2.31845127213e-05 0)
(0.00075856899906 -2.7710274873e-05 0)
(0.000770785843678 -3.23016090864e-05 0)
(0.000784806292547 -3.69886159704e-05 0)
(0.000800668569351 -4.17971029828e-05 0)
(0.00081841759854 -4.67481897784e-05 0)
(0.000838103130405 -5.18576596345e-05 0)
(0.000859777555249 -5.71350404715e-05 0)
(0.000883493328615 -6.25824022215e-05 0)
(0.000909299927777 -6.81928665461e-05 0)
(0.000937240262798 -7.39488429464e-05 0)
(0.00096734647621 -7.98200342998e-05 0)
(0.000999635087143 -8.57612976477e-05 0)
(0.00103410147258 -9.17105033325e-05 0)
(0.00107071373455 -9.75866062578e-05 0)
(0.00110940608109 -0.000103288220157 0)
(0.00115007195108 -0.000108693056154 0)
(0.00119255723559 -0.000113658627841 0)
(0.00123665407737 -0.000118024607465 0)
(0.00128209584465 -0.000121617110632 0)
(0.00132855394092 -0.000124254972369 0)
(0.00137563709228 -0.000125757767253 0)
(0.00142289361841 -0.000125954978993 0)
(0.00146981694029 -0.000124695443436 0)
(0.00151585424575 -0.00012185609263 0)
(0.00156041790474 -0.000117349193959 0)
(0.00160289899623 -0.000111127685441 0)
(0.00164268224706 -0.000103188717985 0)
(0.00167916179361 -9.35759322833e-05 0)
(0.0017117574018 -8.23811731023e-05 0)
(0.00173993104855 -6.97461920545e-05 0)
(0.0017632039796 -5.58642434407e-05 0)
(0.0017811742594 -4.09801005376e-05 0)
(0.00179353402424 -2.53853688565e-05 0)
(0.00180008421129 -9.40591077269e-06 0)
(0.00180074358382 6.61873150018e-06 0)
(0.00179554963011 2.2359663665e-05 0)
(0.00178465105486 3.75205628018e-05 0)
(0.00176829368157 5.18524617573e-05 0)
(0.00174680290224 6.51588659017e-05 0)
(0.00172056615215 7.72918632141e-05 0)
(0.00169001795537 8.81431279753e-05 0)
(0.00165562827601 9.76346338408e-05 0)
(0.00161789341386 0.000105712168861 0)
(0.00157732817952 0.000112342452503 0)
(0.00153445824923 0.000117513343253 0)
(0.00148981193432 0.000121236072663 0)
(0.00144391099459 0.00012354808917 0)
(0.00139726060952 0.000124514979179 0)
(0.00135033909343 0.000124230253162 0)
(0.00130358823267 0.00012281245835 0)
(0.00125740515226 0.000120399824838 0)
(0.00121213641813 0.000117143219482 0)
(0.00116807474595 0.000113198451955 0)
(0.00112545832718 0.000108718951013 0)
(0.00108447248203 0.000103849589068 0)
(0.00104525315646 9.87220961472e-05 0)
(0.00100789170277 9.34521768739e-05 0)
(0.000972440399504 8.81381938669e-05 0)
(0.000938918243743 8.28611323034e-05 0)
(0.000907316653521 7.76855038798e-05 0)
(0.00087760482656 7.26608591033e-05 0)
(0.000849734597472 6.78236259829e-05 0)
(0.00082364471332 6.31990580564e-05 0)
(0.000799264504996 5.88031391196e-05 0)
(0.000776516971512 5.4644348046e-05 0)
(0.000755321319161 5.07252308403e-05 0)
(0.000735595011151 4.70437590538e-05 0)
(0.000717255388867 4.35944749708e-05 0)
(0.000700220926039 4.03694372828e-05 0)
(0.00068441217382 3.73589879799e-05 0)
(0.000669752449491 3.45523642749e-05 0)
(0.000656168315349 3.19381795532e-05 0)
(0.000643589887931 2.95047961524e-05 0)
(0.000631951011493 2.72406105516e-05 0)
(0.000621189323883 2.51342692233e-05 0)
(0.000611246237749 2.31748308885e-05 0)
(0.000602066855374 2.13518887918e-05 0)
(0.000593599831439 1.96556646168e-05 0)
(0.000585797194515 1.80770841736e-05 0)
(0.00057861413517 1.66078436965e-05 0)
(0.000572008766091 1.52404747646e-05 0)
(0.000565941857637 1.39684151669e-05 0)
(0.000560376550802 1.27860926599e-05 0)
(0.00055527804866 1.16890281033e-05 0)
(0.000550613287393 1.06739639097e-05 0)
(0.000546350589075 9.73902240235e-06 0)
(0.000542459301315 8.88389596326e-06 0)
(0.000538909434248 8.11006503582e-06 0)
(0.000535671314754 7.42102849305e-06 0)
(0.000532715292619 6.82250802378e-06 0)
(0.000530011555856 6.32254372243e-06 0)
(0.00052753014384 5.93131096449e-06 0)
(0.000525241284432 5.66031663609e-06 0)
(0.000523116205355 5.52028851965e-06 0)
(0.000521128497904 5.51638050622e-06 0)
(0.000519255644 5.63800920122e-06 0)
(0.00051747851244 5.83889522101e-06 0)
(0.000515772534306 6.00512423026e-06 0)
(0.00121287480648 0.000152572138378 0)
(0.00124186026956 0.000326409791578 0)
(0.00126613428063 0.000396694682866 0)
(0.00127275253546 0.000405305374923 0)
(0.00126196401371 0.000383469314008 0)
(0.00123840115133 0.00034900904114 0)
(0.00120689292067 0.000311024592815 0)
(0.00117126528197 0.000273852562628 0)
(0.00113424837257 0.000239379068809 0)
(0.00109767901579 0.000208264125585 0)
(0.00106273441899 0.000180572270182 0)
(0.00103012740769 0.000156094633697 0)
(0.0010002536255 0.000134512214452 0)
(0.00097329758253 0.000115477227146 0)
(0.000949307195992 9.86520366393e-05 0)
(0.000928245348952 8.37261641423e-05 0)
(0.000910025102409 7.04220927145e-05 0)
(0.000894533453251 5.84955239958e-05 0)
(0.000881647147511 4.7733064582e-05 0)
(0.000871243026326 3.79488969579e-05 0)
(0.000863204635495 2.8981227592e-05 0)
(0.00085742629913 2.06888967043e-05 0)
(0.000853815485002 1.29483180394e-05 0)
(0.000852294028667 5.65080508932e-06 0)
(0.000852798602254 -1.29971466149e-06 0)
(0.000855280682934 -7.98860986761e-06 0)
(0.000859706193657 -1.44921157689e-05 0)
(0.000866054932219 -2.08786287854e-05 0)
(0.00087431984951 -2.72096991763e-05 0)
(0.000884506205968 -3.35407575376e-05 0)
(0.000896630616723 -3.99215844769e-05 0)
(0.000910719976342 -4.63965242553e-05 0)
(0.000926810238838 -5.30044351857e-05 0)
(0.000944945015853 -5.97783626238e-05 0)
(0.000965173944674 -6.67449146219e-05 0)
(0.000987550767775 -7.39233169737e-05 0)
(0.00101213105698 -8.13241243282e-05 0)
(0.00103896950861 -8.8947569509e-05 0)
(0.00106811673222 -9.67815461764e-05 0)
(0.00109961545677 -0.000104799243954 0)
(0.00113349608639 -0.000112956493159 0)
(0.00116977155714 -0.000121188931942 0)
(0.00120843148115 -0.000129409183445 0)
(0.00124943561912 -0.000137504323484 0)
(0.00129270680305 -0.000145334022248 0)
(0.0013381235396 -0.000152729840065 0)
(0.0013855126599 -0.000159496218139 0)
(0.00143464253258 -0.000165413690498 0)
(0.00148521749883 -0.000170244709222 0)
(0.00153687428263 -0.000173742191189 0)
(0.00158918112667 -0.000175660470703 0)
(0.00164164026109 -0.000175767853168 0)
(0.00169369401634 -0.000173859554641 0)
(0.0017447344843 -0.00016976965568 0)
(0.00179411621827 -0.000163380919132 0)
(0.0018411711727 -0.000154631898139 0)
(0.00188522501724 -0.00014352149198 0)
(0.00192561411891 -0.000130111700248 0)
(0.00196170278931 -0.000114529583259 0)
(0.00199290076937 -9.69693175529e-05 0)
(0.00201868132598 -7.76945272662e-05 0)
(0.00203860044362 -5.70391519009e-05 0)
(0.00205231663647 -3.54022316089e-05 0)
(0.00205960867352 -1.32312489376e-05 0)
(0.00206038676894 9.00660399773e-06 0)
(0.00205469379091 3.08587050858e-05 0)
(0.00204269616079 5.19176909344e-05 0)
(0.00202466687259 7.18419443081e-05 0)
(0.00200096465627 9.03623166557e-05 0)
(0.00197201380425 0.000107275944037 0)
(0.00193828788713 0.000122433085384 0)
(0.00190029792622 0.000135724238723 0)
(0.0018585835786 0.000147071696142 0)
(0.00181370553366 0.000156426129795 0)
(0.00176623780682 0.000163767253599 0)
(0.0017167590769 0.000169107144917 0)
(0.00166584264315 0.000172494337012 0)
(0.0016140451627 0.000174016553533 0)
(0.00156189492704 0.00017380039809 0)
(0.00150988079119 0.000172007288882 0)
(0.00145844287361 0.000168825982626 0)
(0.00140796586472 0.000164462806457 0)
(0.00135877535231 0.000159131062331 0)
(0.00131113713177 0.000153041003082 0)
(0.00126525912004 0.000146391426526 0)
(0.00122129528499 0.00013936346034 0)
(0.00117935093631 0.000132116663225 0)
(0.00113948876529 0.000124787235733 0)
(0.00110173512568 0.00011748794412 0)
(0.00106608617462 0.000110309294641 0)
(0.00103251361599 0.000103321516908 0)
(0.00100096989253 9.65769841592e-05 0)
(0.000971392753956 9.01127854193e-05 0)
(0.000943709185787 8.39532495041e-05 0)
(0.000917838722135 7.81122937104e-05 0)