/*--------------------------------*- C++ -*----------------------------------*\
  =========                 |
  \\      /  F ield         | OpenFOAM: The Open Source CFD Toolbox
   \\    /   O peration     | Website:  https://openfoam.org
    \\  /    A nd           | Version:  7
     \\/     M anipulation  |
\*---------------------------------------------------------------------------*/
FoamFile
{
    version     2.0;
    format      ascii;
    class       volScalarField;
    location    "780";
    object      p;
}
// * * * * * * * * * * * * * * * * * * * * * * * * * * * * * * * * * * * * * //

dimensions      [0 2 -2 0 0 0 0];

internalField   nonuniform List<scalar> 
8192
(
0.000672341030893
0.000500807751719
0.000415233738935
0.000371177903378
0.000346216125428
0.000331041082778
0.000321230933201
0.00031453914447
0.000309758031183
0.000306203465623
0.000303468366989
0.000301299278206
0.0002995318392
0.000298055595452
0.000296793999006
0.000295692585853
0.000294711722073
0.000293821997125
0.000293001204033
0.00029223230187
0.000291502003848
0.000290799774604
0.000290117100875
0.000289446948546
0.000288783348129
0.000288121069788
0.000287455359812
0.000286781720208
0.000286095717106
0.000285392806316
0.000284668167117
0.000283916537867
0.000283132047528
0.000282308039063
0.000281436881016
0.000280509765721
0.000279516493488
0.000278445245243
0.000277282348361
0.000276012045304
0.000274616278911
0.000273074515127
0.000271363629726
0.000269457893012
0.000267329090589
0.000264946820953
0.000262279005829
0.000259292638764
0.000255954776315
0.000252233749693
0.000248100542512
0.000243530253791
0.000238503547706
0.00023300799321
0.000227039212183
0.000220601782527
0.000213709866627
0.000206387554229
0.000198668914485
0.000190597749992
0.000182227021309
0.000173617867042
0.000164838107463
0.0001559601642
0.000147058478763
0.000138206709307
0.000129475091288
0.000120928305319
0.00011262407291
0.000104612508416
9.69360592103e-05
8.96297680538e-05
8.27216066785e-05
7.62327216725e-05
7.01775361904e-05
6.45637429051e-05
5.9392286829e-05
5.46574662038e-05
5.03472608668e-05
4.64439460354e-05
4.29249807449e-05
3.97641037675e-05
3.69325336664e-05
3.44001634798e-05
3.21366536232e-05
3.01123561099e-05
2.82990339869e-05
2.66703704524e-05
2.52022826363e-05
2.38730698291e-05
2.26634303752e-05
2.15563828488e-05
2.05371222204e-05
1.95928376914e-05
1.8712511715e-05
1.78867155891e-05
1.71074110198e-05
1.63677646508e-05
1.56619784138e-05
1.49851378513e-05
1.43330778598e-05
1.37022657296e-05
1.30896995167e-05
1.24928208296e-05
1.19094397073e-05
1.13376706009e-05
1.07758772485e-05
1.02226256825e-05
9.67664345471e-06
9.13678465169e-06
8.60199916189e-06
8.07130618622e-06
7.54377096046e-06
7.01848533228e-06
6.49455207467e-06
5.97107493563e-06
5.44715644556e-06
4.92190897557e-06
4.39448699509e-06
3.86415639174e-06
3.33042760207e-06
2.79330376277e-06
2.25373992384e-06
1.71450699344e-06
1.18187032181e-06
6.69033675594e-07
2.04605284963e-07
-6.84736160004e-08
0.000523410688863
0.000459913585135
0.000410260778312
0.000377656953595
0.000355786309075
0.000340653724116
0.000329877775478
0.00032199216787
0.000316071044962
0.000311515890708
0.000307930771337
0.000305047759198
0.000302681528513
0.000300701196428
0.000299012519238
0.000297546409226
0.000296251377046
0.000295088456918
0.000294027731238
0.00029304590477
0.000292124579705
0.00029124900688
0.000290407165221
0.000289589070761
0.000288786247665
0.000287991314929
0.000287197654297
0.000286399137306
0.000285589894214
0.000284764110337
0.000283915839839
0.000283038829492
0.000282126346113
0.00028117100331
0.000280164584057
0.000279097857573
0.000277960390174
0.000276740352416
0.00027542432699
0.000273997125768
0.000272441627936
0.000270738656494
0.000268866914962
0.000266803011652
0.000264521601875
0.000261995680096
0.000259197049985
0.000256096991541
0.000252667127494
0.000248880469405
0.000244712597779
0.00024014290824
0.000235155841167
0.000229742012915
0.000223899179814
0.000217632989036
0.000210957490386
0.000203895397603
0.000196478093305
0.000188745373851
0.0001807449171
0.000172531420888
0.000164165320426
0.000155711019605
0.000147234697939
0.000138801929993
0.000130475443666
0.000122313292989
0.000114367629068
0.000106684097482
9.93017212488e-05
9.2253049298e-05
8.55643703166e-05
7.92558707399e-05
7.33416955435e-05
6.7829939289e-05
6.27226448149e-05
5.80159110682e-05
5.37001964853e-05
4.97608614956e-05
4.61789381155e-05
4.29320693805e-05
3.99955334939e-05
3.73432632748e-05
3.49487827827e-05
3.278600662e-05
3.08298722672e-05
2.90567999499e-05
2.74449911199e-05
2.59745883644e-05
2.46277235612e-05
2.33884823713e-05
2.2242809823e-05
2.1178378662e-05
2.01844368837e-05
1.92516475132e-05
1.83719291798e-05
1.75383038849e-05
1.67447551877e-05
1.59860991519e-05
1.52578683292e-05
1.45562090614e-05
1.38777910194e-05
1.32197284208e-05
1.25795113859e-05
1.19549466777e-05
1.13441062749e-05
1.07452831341e-05
1.01569527859e-05
9.57774037913e-06
9.00639213278e-06
8.44175119447e-06
7.88273734462e-06
7.32833117063e-06
6.77756301586e-06
6.22950856015e-06
5.68329316878e-06
5.13810964473e-06
4.59325583288e-06
4.04820350282e-06
3.50271583598e-06
2.95704263009e-06
2.41223986788e-06
1.87069306818e-06
1.33697959382e-06
8.19350356022e-07
3.31699381712e-07
-1.25513999487e-08
0.000440420121358
0.00041777606551
0.000391820643913
0.000370627000732
0.000354551714858
0.000342282468507
0.000332797935377
0.000325369479427
0.000319474612658
0.000314733991324
0.000310869365758
0.000307674838207
0.000304996755195
0.000302719452766
0.000300755076679
0.000299036273446
0.000297510913269
0.000296138255239
0.000294886139133
0.000293728911222
0.000292645877312
0.00029162013707
0.000290637695456
0.000289686777082
0.000288757289523
0.000287840397185
0.000286928174244
0.000286013318466
0.000285088909689
0.000284148198407
0.000283184415546
0.00028219059632
0.000281159412061
0.000280083005972
0.000278952829414
0.000277759477377
0.000276492522552
0.000275140350032
0.00027368999611
0.000272126998227
0.000270435265703
0.000268596985649
0.000266592581962
0.000264400750431
0.000261998595516
0.000259361896648
0.000256465528733
0.000253284055012
0.000249792495569
0.000245967255769
0.00024178717413
0.000237234627996
0.000232296620258
0.000226965771312
0.000221241153665
0.000215128930606
0.000208642779599
0.00020180409362
0.000194641957511
0.000187192904341
0.00017950045258
0.000171614386358
0.000163589672641
0.000155484910053
0.000147360339329
0.000139275655294
0.000131287954175
0.000123450074195
0.000115809506441
0.000108407906093
0.000101281047412
9.44589919591e-05
8.79662804145e-05
8.18220508666e-05
7.6040057798e-05
7.06286223324e-05
6.55905892046e-05
6.09233902796e-05
5.66192977731e-05
5.26659061075e-05
4.90468261295e-05
4.57425339324e-05
4.27312927339e-05
3.99900656417e-05
3.74953496125e-05
3.52238842667e-05
3.31532117522e-05
3.12620854414e-05
2.95307387366e-05
2.79410349723e-05
2.64765216703e-05
2.5122413301e-05
2.38655231248e-05
2.26941623454e-05
2.15980199691e-05
2.0568034436e-05
1.959626399e-05
1.86757614609e-05
1.78004561376e-05
1.69650451286e-05
1.61648944799e-05
1.53959507428e-05
1.46546621047e-05
1.39379090316e-05
1.32429431022e-05
1.25673337631e-05
1.19089216228e-05
1.12657780618e-05
1.06361699034e-05
1.00185291047e-05
9.41142645459e-06
8.81354953015e-06
8.22368426793e-06
7.64070086545e-06
7.06354397893e-06
6.49122874488e-06
5.92284370635e-06
5.35756371135e-06
4.79467602823e-06
4.23362580072e-06
3.67408847528e-06
3.11608175012e-06
2.56013442542e-06
2.0075392786e-06
1.46072554394e-06
9.2371190176e-07
4.0179186606e-07
2.93474882117e-09
0.000395811331134
0.00038745622885
0.000373302416288
0.000359549687242
0.000348158780967
0.000338917155618
0.000331371144498
0.000325152050522
0.000319981550052
0.000315647027625
0.000311982727954
0.000308857601193
0.00030616719906
0.000303827881718
0.000301772441819
0.000299946695757
0.00029830679257
0.000296817080028
0.000295448410783
0.000294176797269
0.000292982342109
0.000291848385417
0.000290760822022
0.000289707551479
0.000288678031439
0.000287662911601
0.000286653726709
0.000285642638684
0.00028462221616
0.00028358523894
0.000282524521566
0.00028143275015
0.000280302327626
0.000279125223864
0.000277892827886
0.000276595800733
0.000275223928445
0.000273765976403
0.000272209547791
0.000270540951561
0.000268745087898
0.000266805363024
0.000264703648923
0.000262420308255
0.000259934308295
0.000257223450533
0.000254264741555
0.000251034925464
0.000247511185295
0.000243672001517
0.000239498130442
0.00023497364106
0.000230086932029
0.0002248316506
0.000219207452278
0.000213220568463
0.000206884172213
0.00020021854141
0.000193251019558
0.000186015788181
0.000178553477376
0.000170910593277
0.000163138617899
0.00015529259097
0.000147429160564
0.000139604390296
0.000131871723747
0.000124280374573
0.000116874336851
0.000109692053756
0.000102766537081
9.61256463391e-05
8.97923225017e-05
8.37846993451e-05
7.81160843292e-05
7.27948459219e-05
6.78242941346e-05
6.32026703334e-05
5.89233420154e-05
5.49752423981e-05
5.13435320642e-05
4.80104154436e-05
4.49560241965e-05
4.21592824391e-05
3.95986860982e-05
3.72529541535e-05
3.51015337958e-05
3.31249618503e-05
3.13050973956e-05
2.96252476225e-05
2.80702102256e-05
2.6626254639e-05
2.52810608789e-05
2.40236315544e-05
2.28441885999e-05
2.17340636019e-05
2.0685587575e-05
1.96919844719e-05
1.8747270742e-05
1.78461625849e-05
1.6983991315e-05
1.6156627154e-05
1.53604109767e-05
1.4592093757e-05
1.3848782906e-05
1.31278950797e-05
1.2427114595e-05
1.17443570638e-05
1.10777374699e-05
1.04255424285e-05
9.78620601787e-06
9.15828911749e-06
8.54046187956e-06
7.9314895438e-06
7.33022156595e-06
6.73558469691e-06
6.14658053321e-06
5.56228890608e-06
4.98187864175e-06
4.4046285298e-06
3.82996228829e-06
3.25750391882e-06
2.68716246581e-06
2.11925706711e-06
1.55467259643e-06
9.948843486e-07
4.4096196943e-07
5.62858766243e-09
0.000368134602681
0.000366208908989
0.000358451435388
0.000349296566391
0.000341048700978
0.000334044699417
0.000328127296042
0.000323091057027
0.000318767628787
0.000315027369787
0.000311769063439
0.000308911504557
0.000306388089637
0.000304143429537
0.000302131108929
0.000300312074369
0.000298653383582
0.000297127185381
0.000295709865756
0.000294381325488
0.000293124367216
0.000291924175451
0.000290767875499
0.000289644159037
0.000288542965655
0.000287455210077
0.000286372544077
0.00028528715059
0.000284191563351
0.000283078502507
0.000281940723717
0.000280770876767
0.00027956137024
0.0002783042396
0.000276991016506
0.000275612598063
0.000274159115412
0.000272619802323
0.000270982865773
0.000269235362586
0.000267363088633
0.00026535049059
0.000263180614168
0.000260835107656
0.000258294304245
0.000255537410762
0.000252542831437
0.000249288651755
0.000245753295726
0.000241916349645
0.000237759516954
0.000233267639269
0.000228429697307
0.000223239704545
0.000217697429009
0.000211808916496
0.000205586817835
0.000199050527224
0.000192226130097
0.000185146181411
0.000177849381236
0.000170380164587
0.000162788001508
0.000155126067007
0.000147449200192
0.000139811547346
0.000132264414711
0.000124854620217
0.000117623572094
0.000110607138512
0.000103836011351
9.73361571722e-05
9.11291216578e-05
8.52321458724e-05
7.96581078325e-05
7.44153298928e-05
6.95073568685e-05
6.49328531619e-05
6.06857384879e-05
5.67556055866e-05
5.31283857001e-05
4.97871778626e-05
4.67131397753e-05
4.38863465115e-05
4.12865472552e-05
3.88937807641e-05
3.66888375655e-05
3.4653577586e-05
3.2771123518e-05
3.10259552599e-05
2.94039302327e-05
2.78922516977e-05
2.64794028156e-05
2.51550603408e-05
2.39099978737e-05
2.27359858799e-05
2.16256930655e-05
2.05725922569e-05
1.95708723929e-05
1.86153576603e-05
1.77014339183e-05
1.68249824651e-05
1.59823206651e-05
1.51701491114e-05
1.4385504634e-05
1.36257187375e-05
1.28883807697e-05
1.21713054435e-05
1.14725040903e-05
1.07901593628e-05
1.01226028777e-05
9.46829564174e-06
8.82581089032e-06
8.19381933528e-06
7.57107663499e-06
6.95641331161e-06
6.34872723269e-06
5.74697932424e-06
5.15019331133e-06
4.55746122481e-06
3.96795711486e-06
3.38096285326e-06
2.79590955225e-06
2.21243046385e-06
1.63037857303e-06
1.04959591388e-06
4.68780995967e-07
6.32154111687e-09
0.000349734353256
0.000350683091599
0.000346687903832
0.000340592537723
0.000334530040297
0.000329122700835
0.000324421270482
0.000320330976359
0.000316745314756
0.000313575872698
0.000310753337364
0.000308222931935
0.00030594021055
0.000303868154284
0.000301975317407
0.000300234642273
0.000298622662443
0.000297118924247
0.000295705533186
0.000294366776427
0.000293088796739
0.000291859305324
0.000290667326606
0.00028950297061
0.000288357230423
0.000287221798747
0.00028608890093
0.000284951145253
0.000283801387404
0.000282632602206
0.000281437762545
0.000280209723127
0.000278941106838
0.000277624191882
0.000276250798032
0.000274812170898
0.000273298863473
0.000271700615182
0.000270006229635
0.000268203454038
0.000266278865423
0.000264217772177
0.000262004143477
0.00025962058469
0.000257048382679
0.000254267650908
0.000251257607697
0.000247997019631
0.000244464831616
0.000240640983207
0.000236507377316
0.000232048929697
0.00022725459856
0.000222118290633
0.000216639570628
0.000210824154626
0.000204684208968
0.000198238472479
0.000191512189209
0.000184536869459
0.000177350011204
0.000169994887951
0.000162520119832
0.000154978419812
0.000147424320459
0.000139911484943
0.000132490331899
0.000125206268285
0.000118098807563
0.000111201705412
0.000104543672179
9.81490516003e-05
9.20382025594e-05
8.62276186627e-05
8.07298255634e-05
7.55530866498e-05
7.07010464889e-05
6.61725128729e-05
6.19615337988e-05
5.80578157198e-05
5.44474295061e-05
5.1113694492e-05
4.80381166489e-05
4.52012735344e-05
4.25835718855e-05
4.01658415639e-05
3.79297612925e-05
3.58581332589e-05
3.39350341166e-05
3.21458725369e-05
3.04773806757e-05
2.89175622467e-05
2.74556143879e-05
2.60818358924e-05
2.47875302903e-05
2.35649094837e-05
2.24070013129e-05
2.1307563112e-05
2.02610021301e-05
1.92623032103e-05
1.83069635336e-05
1.73909341611e-05
1.65105678047e-05
1.56625723601e-05
1.48439695575e-05
1.40520582611e-05
1.32843818139e-05
1.25386990271e-05
1.18129582909e-05
1.11052744917e-05
1.04139083006e-05
9.73724760403e-06
9.0737907332e-06
8.42213135931e-06
7.78094482555e-06
7.14897593561e-06
6.52502818826e-06
5.9079548082e-06
5.29665205902e-06
4.69005586758e-06
4.08714293038e-06
3.48693710597e-06
2.88851781245e-06
2.29101192583e-06
1.69350102919e-06
1.09464713078e-06
4.91638813287e-07
7.49751435805e-09
0.000336812484633
0.000338999738782
0.000337254637003
0.000333277403462
0.000328820949128
0.000324603559548
0.000320815486274
0.000317451745186
0.000314455428145
0.000311766444429
0.000309334017518
0.000307117507568
0.000305084368338
0.000303207982727
0.00030146601949
0.000299839312686
0.000298311122427
0.000296866642117
0.000295492655677
0.000294177283502
0.000292909780778
0.000291680367569
0.000290480079309
0.000289300631535
0.000288134297474
0.000286973789841
0.000285812150306
0.00028464264698
0.000283458677777
0.000282253674999
0.000281021012116
0.000279753911275
0.000278445350175
0.000277087966952
0.000275673961808
0.000274194994261
0.000272642075194
0.000271005453361
0.000269274496842
0.000267437571273
0.000265481918721
0.000263393544217
0.000261157121333
0.000258755934275
0.000256171881319
0.000253385572582
0.000250376561733
0.000247123752876
0.000243606015165
0.000239803013948
0.000235696226826
0.000231270063373
0.000226512966104
0.000221418362648
0.000215985380802
0.000210219316645
0.000204131908407
0.000197741452582
0.000191072720705
0.000184156663168
0.000177030132351
0.000169735928654
0.000162322796799
0.000154844274784
0.000147355995693
0.000139912457113
0.000132564308403
0.000125356379808
0.000118326798026
0.000111507492543
0.000104925417275
9.86035139272e-05
9.25611495931e-05
8.68142288147e-05
8.13750441164e-05
7.62518509517e-05
7.14483298102e-05
6.69632216671e-05
6.27903462509e-05
5.89190476356e-05
5.53349818097e-05
5.20210995411e-05
4.89586707992e-05
4.61282251612e-05
4.35103285465e-05
4.10861643193e-05
3.88379242916e-05
3.67490377392e-05
3.48042753278e-05
3.29897642323e-05
3.12929451225e-05
2.97024945687e-05
2.82082296329e-05
2.6801005894e-05
2.54726159825e-05
2.42156927969e-05
2.3023619599e-05
2.18904479426e-05
2.08108236025e-05
1.97799202358e-05
1.87933802479e-05
1.78472622416e-05
1.69379943742e-05
1.6062332978e-05
1.5217325818e-05
1.44002794242e-05
1.36087299717e-05
1.28404172471e-05
1.2093261271e-05
1.13653412056e-05
1.06548761992e-05
9.96020786958e-06
9.27978414948e-06
8.61214427014e-06
7.95590468849e-06
7.30974584282e-06
6.67239968723e-06
6.04263807791e-06
5.41926215953e-06
4.801092875e-06
4.18696213062e-06
3.57570197265e-06
2.966122426e-06
2.35695052717e-06
1.74665962653e-06
1.13303761456e-06
5.1228678322e-07
1.03855080555e-08
0.000327328309201
0.000329988703336
0.000329597622463
0.000327105358915
0.000323865148984
0.000320574088838
0.000317498972087
0.000314703029981
0.000312172587526
0.000309872538362
0.000307766824788
0.000305824383113
0.00030401979906
0.000302332395013
0.000300745096244
0.000299243482224
0.000297815087906
0.000296448915058
0.000295135094989
0.000293864652478
0.000292629334389
0.000291421478612
0.000290233907726
0.000289059837693
0.000287892799138
0.000286726557408
0.000285555037969
0.000284372257248
0.000283172253903
0.000281949018682
0.000280696423326
0.000279408147496
0.000278077602639
0.000276697851673
0.000275261523273
0.000273760719566
0.000272186916083
0.000270530853101
0.000268782418004
0.000266930519351
0.000264962955083
0.000262866280322
0.000260625684723
0.000258224896165
0.000255646136508
0.000252870166109
0.000249876464249
0.000246643598668
0.00024314983155
0.000239373984104
0.000235296532549
0.000230900842099
0.000226174385548
0.000221109776479
0.000215705502815
0.000209966364005
0.000203903716891
0.000197535604346
0.000190886667789
0.000183987729835
0.000176875417753
0.000169592551284
0.000162188864477
0.000154720042983
0.000147244287591
0.000139818253008
0.000132493914628
0.000125316294771
0.000118322483825
0.000111542687186
0.000105002221449
9.87228117465e-05
9.27230117379e-05
8.70182934511e-05
8.16208638016e-05
7.65390706338e-05
7.17766136864e-05
6.73319891426e-05
6.31984511112e-05
5.93645200864e-05
5.5814901909e-05
5.25316194508e-05
4.94951644174e-05
4.66855211285e-05
4.40829766939e-05
4.16686929028e-05
3.94250592993e-05
3.73358702934e-05
3.53863748723e-05
3.35632427189e-05
3.18544810493e-05
3.0249326694e-05
2.87381294677e-05
2.73122366557e-05
2.59638840022e-05
2.46860958476e-05
2.34725952593e-05
2.23177240951e-05
2.12163723396e-05
2.01639158968e-05
1.91561618734e-05
1.81893004786e-05
1.72598626569e-05
1.63646827219e-05
1.55008652724e-05
1.46657558229e-05
1.38569145855e-05
1.30720929707e-05
1.23092123619e-05
1.15663448324e-05
1.08416954444e-05
1.01335858714e-05
9.44043904414e-06
8.76076461846e-06
8.09314502161e-06
7.43622192508e-06
6.78868294164e-06
6.14924838116e-06
5.51665768156e-06
4.88965470536e-06
4.26696969752e-06
3.64729243483e-06
3.02922320084e-06
2.4111711932e-06
1.79113768398e-06
1.16627998708e-06
5.32164787583e-07
1.56885633666e-08
0.000320118558955
0.000322895582362
0.000323318130273
0.000321870696151
0.000319562151089
0.000317011221243
0.000314512677544
0.000312175186669
0.000310020402466
0.000308035916569
0.000306199374894
0.000304488077185
0.000302882089461
0.000301364743683
0.000299922236706
0.000298543025778
0.000297217271624
0.000295936396107
0.000294692752725
0.000293479387565
0.00029228986631
0.000291118146924
0.000289958482813
0.000288805345545
0.000287653363326
0.000286497259817
0.000285331796769
0.000284151725221
0.000282951733724
0.000281726394919
0.000280470109808
0.000279177048633
0.000277841087294
0.000276455738074
0.000275014073372
0.000273508640956
0.000271931369193
0.000270273460709
0.000268525273173
0.000266676186591
0.000264714457937
0.000262627066672
0.000260399559378
0.000258015909086
0.000255458415738
0.000252707688272
0.000249742764422
0.000246541436282
0.000243080848902
0.000239338413457
0.000235293016766
0.000230926419828
0.000226224649666
0.000221179154991
0.000215787568239
0.000210054092969
0.000203989709608
0.000197612353947
0.000190946873264
0.000184024393899
0.000176881620826
0.000169561658469
0.00016211603169
0.00015460410661
0.00014708834331
0.000139628981797
0.000132280501835
0.000125088921177
0.000118090494545
0.000111313586068
0.000104781903926
9.85161397657e-05
9.25341933355e-05
8.68512376431e-05
8.14795557644e-05
7.64277258067e-05
7.16994734009e-05
6.72928649695e-05
6.32002218334e-05
5.94087420581e-05
5.59016139904e-05
5.26593558192e-05
4.96611402215e-05
4.68859288536e-05
4.43133262676e-05
4.19241404389e-05
3.97006891655e-05
3.76269144136e-05
3.56883677276e-05
3.38721190655e-05
3.21666272659e-05
3.05615971869e-05
2.90478384896e-05
2.76171339507e-05
2.62621208063e-05
2.49761859438e-05
2.37533744326e-05
2.25883101535e-05
2.14761271314e-05
2.04124100945e-05
1.93931429684e-05
1.84146640842e-05
1.74736271125e-05
1.65669668079e-05
1.56918688528e-05
1.48457431261e-05
1.4026199892e-05
1.32310284036e-05
1.24581775565e-05
1.17057382002e-05
1.09719268312e-05
1.02550703485e-05
9.55359164658e-06
8.86599576547e-06
8.19085638869e-06
7.52680239093e-06
6.87250414007e-06
6.22665902415e-06
5.58797535659e-06
4.95515289465e-06
4.32685643354e-06
3.70167502383e-06
3.07805171815e-06
2.45415456011e-06
1.82763843717e-06
1.19523123275e-06
5.5211299489e-07
2.38620155503e-08
0.000314487748199
0.000317218669328
0.000318125388283
0.000317413128484
0.000315820036615
0.000313867402399
0.000311845970883
0.000309889660538
0.000308046304899
0.000306322931876
0.000304709962717
0.000303192730169
0.000301756383549
0.000300387641289
0.000299075160595
0.000297809368812
0.000296582134855
0.000295386436059
0.000294216074173
0.00029306545075
0.000291929395627
0.000290803037472
0.000289681705564
0.000288560854304
0.000287436004033
0.00028630268747
0.000285156398248
0.000283992551818
0.000282806442544
0.000281593199808
0.000280347741591
0.000279064724241
0.000277738487116
0.000276362990689
0.000274931746518
0.000273437737252
0.000271873324588
0.000270230142883
0.000268498976021
0.000266669615467
0.000264730698425
0.00026266952737
0.000260471876784
0.000258121800844
0.000255601468389
0.000252891069336
0.000249968858488
0.000246811423127
0.00024339426794
0.000239692787341
0.000235683623759
0.000231346291011
0.000226664810753
0.000221629045218
0.000216235496931
0.000210487608145
0.000204395895981
0.000197978249934
0.000191260065183
0.000184273279451
0.00017705487185
0.000169648153673
0.000162107195218
0.000154497048872
0.000146886561067
0.000139341169008
0.000131919245494
0.0001246687991
0.000117625281558
0.000110814789296
0.000104259392616
9.79789891434e-05
9.19909478304e-05
8.63102076058e-05
8.0949282123e-05
7.59171426862e-05
7.12175413537e-05
6.68478747337e-05
6.27990781435e-05
5.90564351312e-05
5.56009667499e-05
5.24110499352e-05
4.94639658484e-05
4.67371716327e-05
4.42092028199e-05
4.18602129995e-05
3.96722176706e-05
3.76291295428e-05
3.57166658438e-05
3.39221895679e-05
3.22345263313e-05
3.06437817748e-05
2.91411725276e-05
2.77188761849e-05
2.63699013715e-05
2.50879767322e-05
2.3867456717e-05
2.27032417826e-05
2.15907107275e-05
2.05256631354e-05
1.95042701957e-05
1.85230324531e-05
1.75787432922e-05
1.66684571723e-05
1.57894618049e-05
1.4939253602e-05
1.41155158424e-05
1.33160990849e-05
1.25390034334e-05
1.17823623068e-05
1.10444274127e-05
1.03235546453e-05
9.61819064867e-06
8.92685977948e-06
8.24815118394e-06
7.58070563011e-06
6.92320160211e-06
6.27433986809e-06
5.63282517856e-06
4.99734265052e-06
4.36652431214e-06
3.7388973917e-06
3.11279910795e-06
2.48623202086e-06
1.85662153303e-06
1.22043466318e-06
5.7265541403e-07
3.51993416725e-08
0.000310001330825
0.000312615543431
0.000313803385562
0.000313607430199
0.000312563018673
0.000311095584332
0.000309473648702
0.000307840770097
0.000306262066142
0.000304759965701
0.000303336184101
0.000301983671623
0.000300692551549
0.00029945280442
0.000298255310576
0.000297092118536
0.000295956381067
0.000294842172871
0.000293744287095
0.000292658050142
0.000291579166998
0.000290503597282
0.000289427457524
0.000288346946399
0.000287258283209
0.000286157655642
0.00028504117106
0.00028390481953
0.000282744435031
0.000281555656129
0.000280333884472
0.000279074239519
0.00027777150797
0.000276420086192
0.000275013913731
0.000273546395641
0.00027201031097
0.000270397704196
0.00026869975608
0.000266906630102
0.000265007291225
0.000262989295373
0.000260838552299
0.000258539072615
0.000256072724022
0.000253419043634
0.000250555182787
0.000247456092447
0.000244095077298
0.00024044482981
0.000236478973026
0.000232173981839
0.000227511158434
0.000222478218646
0.000217070141401
0.000211289312407
0.000205145518629
0.000198656477364
0.000191848465602
0.000184754947049
0.000177413290549
0.000169866320942
0.000162171330025
0.000154402006593
0.000146636454902
0.000138947133195
0.000131398089495
0.00012404081391
0.000116909754221
0.000110027801372
0.000103415374706
9.709197581e-05
9.10744632486e-05
8.53774366153e-05
8.00137479641e-05
7.49929308038e-05
7.03187131108e-05
6.59874593692e-05
6.19881096215e-05
5.83032851283e-05
5.49110562122e-05
5.17869237452e-05
4.89056476667e-05
4.62426798211e-05
4.37751111923e-05
4.14821707878e-05
3.93453818745e-05
3.734849509e-05
3.54772995782e-05
3.37193839067e-05
3.2063891022e-05
3.05012907469e-05
2.90231798335e-05
2.7622111698e-05
2.62914540138e-05
2.50252706303e-05
2.38182239463e-05
2.26654940636e-05
2.1562711575e-05
2.0505901334e-05
1.94914350971e-05
1.85159913109e-05
1.75765207063e-05
1.66702165966e-05
1.57944890355e-05
1.49469421144e-05
1.41253538534e-05
1.33276581973e-05
1.25519287424e-05
1.17963638404e-05
1.10592727992e-05
1.03390628913e-05
9.6342269173e-06
8.94333102439e-06
8.2650024595e-06
7.59791679534e-06
6.94078399658e-06
6.29233228171e-06
5.6512880891e-06
5.01634920559e-06
4.38614601928e-06
3.75918222455e-06
3.13374068987e-06
2.50773259124e-06
1.87846139166e-06
1.24227681808e-06
5.94123162789e-07
4.98663899144e-08
0.000306376209536
0.000308846620178
0.00031018895416
0.000310354023108
0.000309729150665
0.000308654788273
0.000307368815287
0.000306013581242
0.000304663861747
0.000303353296663
0.000302092968926
0.00030088271956
0.000299717445417
0.000298590356458
0.000297494526655
0.000296423540177
0.000295371684117
0.000294333930549
0.000293305833275
0.000292283400882
0.000291262974043
0.000290241117868
0.000289214531501
0.000288179977255
0.000287134219646
0.000286073971231
0.000284995847033
0.000283896326945
0.000282771718444
0.000281618119216
0.000280431377932
0.000279207051491
0.000277940356939
0.00027662611614
0.000275258690927
0.000273831906035
0.000272338956472
0.000270772295233
0.000269123496412
0.00026738308803
0.000265540348591
0.000263583062336
0.000261497231536
0.000259266752168
0.000256873074714
0.000254294897894
0.000251507981542
0.000248485211655
0.000245197089851
0.000241612817442
0.000237702054351
0.000233437224898
0.000228795957052
0.000223763031935
0.00021833130392
0.000212501576648
0.000206282302609
0.000199690493667
0.000192753537346
0.000185507575502
0.000177990494947
0.000170242734359
0.000162325265983
0.000154325246203
0.000146334143106
0.000138433369836
0.000130695129333
0.00012317702561
0.000115911896403
0.000108917533814
0.00010221289534
9.58178146164e-05
8.97483634373e-05
8.40183094643e-05
7.86408350846e-05
7.36261782911e-05
6.89778657053e-05
6.46906468786e-05
6.0750613177e-05
5.71367518865e-05
5.38232165976e-05
5.07817689779e-05
4.79839478757e-05
4.54026804691e-05
4.3013257054e-05
4.07937544587e-05
3.87250673773e-05
3.67907078852e-05
3.49764974333e-05
3.32702323024e-05
3.16613673998e-05
3.01407385856e-05
2.8700328951e-05
2.7333076866e-05
2.60327203613e-05
2.47936716203e-05
2.36109157131e-05
2.24799285533e-05
2.13966099712e-05
2.03572286599e-05
1.93583764575e-05
1.83969300064e-05
1.74700182743e-05
1.65749947612e-05
1.57094134763e-05
1.48710079621e-05
1.40576727891e-05
1.32674470551e-05
1.24984995012e-05
1.17491149184e-05
1.10176815529e-05
1.03026792401e-05
9.60266799256e-06
8.91627673787e-06
8.24219182552e-06
7.5791447842e-06
6.92589855796e-06
6.28123101542e-06
5.64391378534e-06
5.01268323055e-06
4.38619834689e-06
3.76297722742e-06
3.14129929004e-06
2.51905537136e-06
1.89352485818e-06
1.26106440402e-06
6.16713503622e-07
6.79167467654e-08
0.00030342040939
0.000305740054834
0.000307156887753
0.000307572295203
0.000307266948103
0.00030651006704
0.000305506641258
0.000304391011858
0.000303241652557
0.000302099556015
0.00030098307388
0.000299897956108
0.000298843494287
0.000297816026376
0.000296810815472
0.000295822985192
0.000294847932957
0.000293881467797
0.000292919811705
0.000291959540192
0.000290997501612
0.000290030734719
0.000289056392822
0.000288071681197
0.000287073801094
0.000286059894635
0.000285027003378
0.000283972030341
0.000282891703629
0.000281782540125
0.000280640807557
0.00027946248317
0.000278243207097
0.000276978228288
0.000275662340441
0.000274289804746
0.000272854255454
0.000271348583162
0.000269764789384
0.000268093804552
0.000266325260338
0.000264447206964
0.000262445768234
0.000260304734051
0.000258005106012
0.000255524641407
0.000252837489316
0.000249914078355
0.000246721483017
0.000243224520957
0.000239387745679
0.000235178233008
0.000230568644583
0.000225539694314
0.000220081176942
0.000214191401384
0.000207876270975
0.000201150690443
0.000194042951205
0.000186593852402
0.000178842239492
0.000170821785236
0.000162596974689
0.000154277126013
0.000145973227393
0.000137777275227
0.000129773362763
0.000122030424082
0.000114578240387
0.0001074256652
0.000100591047028
9.40958730686e-05
8.79543447242e-05
8.21780775357e-05
7.67803529941e-05
7.17721765524e-05
6.71564438701e-05
6.29253483111e-05
5.90609350659e-05
5.55372998067e-05
5.23234971027e-05
4.93865484664e-05
4.66940126848e-05
4.42157790038e-05
4.19250310145e-05
3.9798539195e-05
3.78165146573e-05
3.59622341323e-05
3.42215850602e-05
3.25826185514e-05
3.10351525496e-05
2.95704392018e-05
2.81808953205e-05
2.68598881152e-05
2.56015664527e-05
2.44007282699e-05
2.3252716116e-05
2.21533343167e-05
2.10987827027e-05
2.00856030166e-05
1.91106350773e-05