/*--------------------------------*- C++ -*----------------------------------*\
  =========                 |
  \\      /  F ield         | OpenFOAM: The Open Source CFD Toolbox
   \\    /   O peration     | Website:  https://openfoam.org
    \\  /    A nd           | Version:  7
     \\/     M anipulation  |
\*---------------------------------------------------------------------------*/
FoamFile
{
    version     2.0;
    format      ascii;
    class       surfaceScalarField;
    location    "780";
    object      phi;
}
// * * * * * * * * * * * * * * * * * * * * * * * * * * * * * * * * * * * * * //

dimensions      [0 3 -1 0 0 0 0];

internalField   nonuniform List<scalar> 
16192
(
6.92890193667e-10
2.44609806333e-10
4.93497234777e-10
1.99392961267e-10
3.64750760984e-10
1.28746475676e-10
2.82186286285e-10
8.25644760978e-11
2.2760447169e-10
5.45818156379e-11
1.90056820989e-10
3.75476515769e-11
1.63195945631e-10
2.68608761657e-11
1.43305259052e-10
1.98906873759e-11
1.28147531475e-10
1.51577283668e-11
1.16328288804e-10
1.18192434774e-11
1.069458361e-10
9.38245351142e-12
9.93960080328e-11
7.5498288967e-12
9.32605340312e-11
6.13547482803e-12
8.8241310856e-11
5.01922402075e-12
8.41204783226e-11
4.12083336875e-12
8.07354015736e-11
3.38507760022e-12
7.79625182657e-11
2.77288414199e-12
7.57066144147e-11
2.25590469847e-12
7.38935196312e-11
1.81309560788e-12
7.24650155357e-11
1.42850493184e-12
7.13752124857e-11
1.08980385872e-12
7.05879241911e-11
7.8728911518e-13
7.0074734493e-11
5.13190488596e-13
6.98135546548e-11
2.61180643635e-13
6.97875336251e-11
2.60218068628e-14
6.99842272938e-11
-1.96692868007e-13
7.03949579333e-11
-4.10729857729e-13
7.10143170695e-11
-6.19358312733e-13
7.18397766721e-11
-8.25458777127e-13
7.28713810332e-11
-1.03160346218e-12
7.41114962139e-11
-1.24011424219e-12
7.5564599086e-11
-1.45310180975e-12
7.72370882136e-11
-1.67248796721e-12
7.91371009885e-11
-1.90001141679e-12
8.12743192637e-11
-2.13721673514e-12
8.36597461843e-11
-2.38542508198e-12
8.6305433305e-11
-2.6456849882e-12
8.92241368441e-11
-2.91870097888e-12
9.24288782505e-11
-3.20473841225e-12
9.59323853439e-11
-3.50350351556e-12
9.97463894853e-11
-3.81399996557e-12
1.03880760667e-10
-4.13436624563e-12
1.0834246956e-10
-4.4617031784e-12
1.13134383012e-10
-4.79190679027e-12
1.18253919701e-10
-5.11952906641e-12
1.23691623628e-10
-5.4376951768e-12
1.29429743428e-10
-5.73810992706e-12
1.35440938508e-10
-6.01118393665e-12
1.41687251493e-10
-6.24630062011e-12
1.48119490847e-10
-6.4322256685e-12
1.54677141518e-10
-6.55763579819e-12
1.61288875273e-10
-6.61171768816e-12
1.67873665084e-10
-6.58477281414e-12
1.74342448066e-10
-6.46876517783e-12
1.8060023619e-10
-6.25776993443e-12
1.86548564753e-10
-5.94831024945e-12
1.92088178128e-10
-5.53959551209e-12
1.97121880886e-10
-5.03368571895e-12
2.01557508927e-10
-4.43561250335e-12
2.05311011031e-10
-3.75348848869e-12
2.08309635188e-10
-2.99861314052e-12
2.10495137692e-10
-2.18549441426e-12
2.11826727733e-10
-1.33158538829e-12
2.12283246619e-10
-4.56517738833e-13
2.11864044072e-10
4.19199965932e-13
2.10588268072e-10
1.27576990754e-12
2.08492689389e-10
2.09556909931e-12
2.05628508214e-10
2.86416850888e-12
2.02057798441e-10
3.57069420364e-12
1.9785024027e-10
4.20754023743e-12
1.93080548707e-10
4.76967155883e-12
1.87826679617e-10
5.2538476319e-12
1.82168633943e-10
5.6580231018e-12
1.7618756871e-10
5.9810421616e-12
1.69964915628e-10
6.22262982434e-12
1.63581283592e-10
6.38360912887e-12
1.57115043237e-10
6.46621802264e-12
1.50640643973e-10
6.47437791358e-12
1.44226833131e-10
6.41379057191e-12
1.3793500941e-10
6.29180480002e-12
1.318179257e-10
6.11706611668e-12
1.25918891899e-10
5.89901768612e-12
1.20271533095e-10
5.64734405016e-12
1.14900074095e-10
5.3714456695e-12
1.09820053441e-10
5.08000856599e-12
1.05039339135e-10
4.78070347104e-12
1.0055930967e-10
4.48001966867e-12
9.63760824917e-11
4.1832184057e-12
9.24816959158e-11
3.89437860607e-12
8.88651837282e-11
3.61650500562e-12
8.55135063726e-11
3.3516707504e-12
8.24123276941e-11
3.10117265013e-12
7.95466389494e-11
2.86568310244e-12
7.69012445215e-11
2.64538919345e-12
7.44611259062e-11
2.44011362154e-12
7.22117051209e-11
2.24941607616e-12
7.01390252306e-11
2.07267532036e-12
6.82298667968e-11
1.90915406645e-12
6.64718137735e-11
1.75804873037e-12
6.48532827609e-11
1.61852687241e-12
6.33635242327e-11
1.48975442526e-12
6.19926051188e-11
1.37091513696e-12
6.07313773942e-11
1.26122376659e-12
5.95714387036e-11
1.159934847e-12
5.85050869035e-11
1.06634796957e-12
5.75252722927e-11
9.79810892615e-13
5.66255475829e-11
8.99721006525e-13
5.58000178668e-11
8.25526129495e-13
5.50432893653e-11
7.56724936649e-13
5.43504180655e-11
6.92867860178e-13
5.371685593e-11
6.33558728712e-13
5.31383946036e-11
5.78458057691e-13
5.26111029123e-11
5.27288470836e-13
5.2131256293e-11
4.79843554178e-13
5.1695252021e-11
4.36001275624e-13
5.12995048813e-11
3.95744322004e-13
5.09403119728e-11
3.5919018716e-13
5.06136733148e-11
3.26636147424e-13
5.03150443174e-11
2.98626622475e-13
5.00389861882e-11
2.7605601214e-13
4.97786560519e-11
2.60328211796e-13
4.95250452731e-11
2.53609175448e-13
4.92658133115e-11
2.59230609053e-13
4.89834869297e-11
2.82325372528e-13
4.86527492311e-11
3.30736880627e-13
4.82369946932e-11
4.15753920422e-13
4.76872504622e-11
5.4974389262e-13
7.05429621452e-13
9.53375187778e-10
2.28734621512e-10
8.59588989262e-10
2.93179163483e-10
7.45064166205e-10
2.43271301507e-10
6.41955495626e-10
1.85673148527e-10
5.56889300385e-10
1.39648012238e-10
4.886580136e-10
1.05778939522e-10
4.34233243929e-10
8.12856469264e-11
3.90656332918e-10
6.34675994632e-11
3.55508877101e-10
5.03051852618e-11
3.26930694347e-10
4.03974273264e-11
3.03519923719e-10
3.27932252443e-11
2.84223130359e-10
2.68466233807e-11
2.68244452392e-10
2.21141539212e-11
2.54977160717e-10
1.82865168346e-11
2.43953926752e-10
1.51440684652e-11
2.3481111509e-10
1.25278903964e-11
2.27263150632e-10
1.03208497169e-11
2.21084008493e-10
8.43504794938e-12
2.16093725192e-10
6.80337999269e-12
2.12148465095e-10
5.37376610113e-12
2.09133123906e-10
4.10514608242e-12
2.06955761605e-10
2.9646524347e-12
2.05543368544e-10
1.92558452689e-12
2.04838614631e-10
9.65935518245e-13
2.047973303e-10
6.73070624479e-14
2.05386537814e-10
-7.85899458415e-13
2.06582896627e-10
-1.60708776338e-12
2.08371464822e-10
-2.40792556784e-12
2.10744699345e-10
-3.19869233185e-12
2.1370163279e-10
-3.98853584365e-12
2.17247174576e-10
-4.7856548557e-12
2.21391492296e-10
-5.59741816016e-12
2.26149431277e-10
-6.43042534738e-12
2.31539932807e-10
-7.29051099994e-12
2.37585409408e-10
-8.18269098432e-12
2.44311034877e-10
-9.11104764981e-12
2.51743902711e-10
-1.00785492843e-11
2.59912005452e-10
-1.10867993726e-11
2.68842984856e-10
-1.21357125469e-11
2.78562606001e-10
-1.32231182669e-11
2.89092913614e-10
-1.43442999288e-11
3.00450044502e-10
-1.54914880046e-11
3.12641692249e-10
-1.66533401751e-11
3.25664257829e-10
-1.78144597682e-11
3.39499766358e-10
-1.89550230093e-11
3.5411269067e-10
-2.00506027057e-11
3.69446883435e-10
-2.10722836265e-11
3.85422877613e-10
-2.19871566195e-11
4.01935847502e-10
-2.27592466056e-11
4.18854521796e-10
-2.33508736476e-11
4.36021286992e-10
-2.3724372477e-11
4.5325362411e-10
-2.38440243118e-11
4.70346893184e-10
-2.36780098949e-11
4.87078358731e-10
-2.32001977381e-11
5.03212259348e-10
-2.23916373392e-11
5.18505692598e-10
-2.1241710832e-11
5.32715094713e-10
-1.97489665114e-11
5.45603129599e-10
-1.79216919861e-11
5.56945836045e-10
-1.57782939361e-11
5.66539921039e-10
-1.33475530117e-11
5.74210081856e-10
-1.06687589963e-11
5.79816102477e-10
-7.79150621634e-12
5.83259134239e-10
-4.77461499857e-12
5.84486224425e-10
-1.68361253751e-12
5.83492135136e-10
1.41327789426e-12
5.80317964754e-10
4.4499225712e-12
5.75046809454e-10
7.36670073702e-12
5.67797304089e-10
1.01136449715e-11
5.587162572e-10
1.26517076169e-11
5.47971592851e-10
1.49521674517e-11
5.35746398808e-10
1.69948256247e-11
5.22234299539e-10
1.87659050707e-11
5.07635903771e-10
2.02563760103e-11
4.92155853524e-10
2.14610494332e-11
4.75999968891e-10
2.23784720523e-11
4.59372096763e-10
2.30114401452e-11
4.42470487307e-10
2.33677881125e-11
4.25483791197e-10
2.34610368717e-11
4.08586991717e-10
2.33105553175e-11
3.91937699859e-10
2.29410645684e-11
3.75673218355e-10
2.23815181663e-11
3.5990866344e-10
2.16635458215e-11
3.4473626199e-10
2.08197212347e-11
3.30225777989e-10
1.98819078349e-11
3.16425891192e-10
1.88798757075e-11
3.03366279162e-10
1.78402978748e-11
2.91060130604e-10
1.67861523426e-11
2.79506841249e-10
1.57364934551e-11
2.68694687256e-10
1.47065195885e-11
2.58603329755e-10
1.37078506451e-11
2.49206056428e-10
1.27489331155e-11
2.40471714978e-10
1.18355039276e-11
2.32366326374e-10
1.09710621192e-11
2.24854392488e-10
1.01573140116e-11
2.17899925188e-10
9.39457221168e-12
2.1146723365e-10
8.68209923943e-12
2.05521506399e-10
8.01839440802e-12
2.00029225624e-10
7.40142689753e-12
1.94958445656e-10
6.82882088023e-12
1.90278965599e-10
6.2979992688e-12
1.85962419287e-10
5.8062931601e-12
1.81982303721e-10
5.35102325546e-12
1.78313960893e-10
4.92955921711e-12
1.74934526733e-10
4.53936175606e-12
1.71822855674e-10
4.17801185086e-12
1.68959429097e-10
3.84323042763e-12
1.6632625152e-10
3.53289162879e-12
1.63906738883e-10
3.24503196552e-12
1.61685599425e-10
2.97785770447e-12
1.59648708503e-10
2.72975227022e-12
1.57782975084e-10
2.49928577427e-12
1.5607619848e-10
2.28522850051e-12
1.54516910139e-10
2.08657082784e-12
1.53094195797e-10
1.9025521664e-12
1.51797488972e-10
1.73270259832e-12
1.50616326505e-10
1.5769015979e-12
1.49540051726e-10
1.43546006942e-12
1.48557449832e-10
1.30923353541e-12
1.47656295233e-10
1.19977710065e-12
1.46822792868e-10
1.10955475036e-12
1.46040901917e-10
1.04221603089e-12
1.45291564757e-10
1.00294379842e-12
1.44551955896e-10
9.9883750393e-13
1.43795120402e-10
1.03915954716e-12
1.42991037407e-10
1.1348191601e-12
1.42111790324e-10
1.29500071906e-12
1.41148801939e-10
1.51273219496e-12
1.712506872e-12
9.76216305986e-10
1.90018317407e-10
9.62992901381e-10
3.06402569702e-10
9.06157454803e-10
3.00106748996e-10
8.3387874867e-10
2.57951855219e-10
7.61150828427e-10
2.12375932756e-10
6.94381856243e-10
1.72547911862e-10
6.35638715409e-10
1.40028787864e-10
5.85022196183e-10
1.14084118794e-10
5.41846237715e-10
9.34811438288e-11
5.05187257455e-10
7.70564077069e-11
4.7412269385e-10
6.38577889631e-11
4.47822679979e-10
5.31466373855e-11
4.25575345634e-10
4.4361488387e-11
4.06784120852e-10
3.70777417511e-11
3.90954782295e-10
3.09734071312e-11
3.77680099097e-10
2.58025737121e-11
3.66625297582e-10
2.13756513137e-11
3.5751545249e-10
1.75448931248e-11
3.501249934e-10
1.41938391206e-11
3.4426915275e-10
1.12296067845e-11
3.39797066843e-10
8.57723196552e-12
3.36586234498e-10
6.17548474816e-12
3.34538068813e-10
3.9737501169e-12
3.33574321474e-10
1.92968275443e-12
3.33634198676e-10
7.42969576554e-15
3.34672023624e-10
-1.82372456689e-12
3.36655326106e-10
-3.59039045057e-12
3.39563269892e-10
-5.31586952545e-12
3.43385336713e-10
-7.02075933106e-12
3.4812020046e-10
-8.72339967605e-12
3.53774731757e-10
-1.0440186174e-11
3.60363079629e-10
-1.21857658653e-11
3.67905777308e-10
-1.39731226829e-11
3.76428821142e-10
-1.58135541633e-11
3.8596266805e-10
-1.77165368816e-11
3.96541096385e-10
-1.96894744556e-11
4.08199870283e-10
-2.17373210963e-11
4.20975147679e-10
-2.38620739171e-11
4.3490157054e-10
-2.60621317304e-11
4.50009982628e-10
-2.83315256136e-11
4.6632472936e-10
-3.06590407792e-11
4.83860517433e-10
-3.30272687941e-11
5.02618842838e-10
-3.54116568127e-11
5.22584045974e-10
-3.77796523809e-11
5.43719112703e-10
-4.00900773867e-11
5.65961417248e-10
-4.22928928119e-11
5.89218679021e-10
-4.43295288446e-11
6.13365477679e-10
-4.61339364035e-11
6.38240709845e-10
-4.76344576504e-11
6.63646368255e-10
-4.87565086071e-11
6.89347954416e-10
-4.94259331141e-11
7.15076711702e-10
-4.957275412e-11
7.40533696823e-10
-4.91349660969e-11
7.65395546963e-10
-4.80620178942e-11
7.89321678196e-10
-4.63177383202e-11
8.11962605804e-10
-4.38826085471e-11
8.3296908229e-10
-4.07554145008e-11
8.52001782666e-10
-3.69543660622e-11
8.68741291898e-10
-3.25177802217e-11
8.82898192794e-10
-2.75044351152e-11
8.94223074251e-10
-2.19936268576e-11
9.02516153173e-10
-1.608457726e-11
9.07635778055e-10
-9.894238348e-12
9.09504589166e-10
-3.55242845709e-12
9.08112060822e-10
2.80579500517e-12
9.03512793223e-10
9.04917300991e-12
8.95820870611e-10
1.50586005739e-11
8.85201373349e-10
2.073311464e-11
8.71860602515e-10
2.5992446592e-11
8.56036588785e-10
3.07761460342e-11
8.37990917273e-10
3.50404593907e-11
8.18002136384e-10
3.87546466448e-11
7.96360439744e-10
4.1898032448e-11
7.73363064762e-10
4.44583842657e-11
7.49309818381e-10
4.64316788863e-11
7.24498268335e-10
4.7822951989e-11
6.99218396739e-10
4.86476231851e-11
6.73746850123e-10
4.89325491412e-11
6.48341197212e-10
4.87161761638e-11
6.23234743953e-10
4.80474883129e-11
5.98632420151e-10
4.69838149211e-11
5.74708099959e-10
4.55878415273e-11
5.51603501028e-10
4.39242980194e-11
5.29428600712e-10
4.20567883222e-11
5.08263342091e-10
4.00451165156e-11
4.88160311047e-10
3.79433130356e-11
4.69148033911e-10
3.57984151897e-11
4.51234571838e-10
3.36499427343e-11
4.34411140379e-10
3.15299394199e-11
4.18655554832e-10
2.94634256474e-11
4.03935367194e-10
2.74691109947e-11
3.90210622974e-10
2.55602391304e-11
3.77436209531e-10
2.37454670323e-11
3.65563803919e-10
2.20297115799e-11
3.54543446599e-10
2.04149217631e-11
3.44324782489e-10
1.89007558923e-11
3.34858012832e-10
1.74851567467e-11
3.26094604702e-10
1.61648279166e-11
3.17987799282e-10
1.49356192488e-11
3.1049295873e-10
1.37928329227e-11
3.03567783363e-10
1.27314616529e-11
2.97172428776e-10
1.17463710985e-11
2.9126954454e-10
1.08324367238e-11
2.85824254685e-10
9.98464501072e-12
2.80804093211e-10
9.19816674471e-12
2.76178907433e-10
8.46840976645e-12
2.7192073602e-10
7.79105663761e-12
2.68003669057e-10
7.1620926843e-12
2.64403692233e-10
6.5778283424e-12
2.61098518342e-10
6.03492016026e-12
2.58067404499e-10
5.5303937028e-12
2.55290954854e-10
5.06167244836e-12
2.52750904033e-10
4.62661607489e-12
2.50429878114e-10
4.22357277207e-12
2.48311125696e-10
3.8514498737e-12
2.46378213906e-10
3.50980856118e-12
2.44614681435e-10
3.19898794992e-12
2.43003646313e-10
2.92026446037e-12
2.41527370221e-10
2.67604932623e-12
2.40166800534e-10
2.47012107221e-12
2.38901142635e-10
2.3078710102e-12
2.3770758729e-10
2.19649681898e-12
2.36561449935e-10
2.14497301213e-12
2.35437236803e-10
2.16337138314e-12
2.34311589458e-10
2.26046583365e-12
2.33169736805e-10
2.43685331423e-12
2.32015933031e-10
2.66653629721e-12
2.8527023941e-12
9.71776355209e-10
1.55741963475e-10
9.86734150393e-10
2.91444774889e-10
9.68317786229e-10
3.18523113273e-10
9.2814727043e-10
2.98122370474e-10
8.78076774516e-10
2.62446427728e-10
8.25626868899e-10
2.24997816381e-10
7.74945544682e-10
1.90710110932e-10
7.2806415756e-10
1.60965504761e-10
6.8579509146e-10
1.35750208769e-10
6.48288640578e-10
1.14562857434e-10
6.153588303e-10
9.67875980835e-11
5.86667144122e-10
8.18383224036e-11
5.61822716279e-10
6.92059150579e-11
5.40434716117e-10
5.84657407308e-11
5.22137944093e-10
4.92701779512e-11
5.06603748003e-10
4.13367685771e-11
4.93543130598e-10
3.44362674608e-11
4.82705895983e-10
2.83821264505e-11
4.73877955498e-10
2.302177827e-11
4.66877937313e-10
1.82296235904e-11
4.61553695583e-10
1.39014722558e-11
4.57779011248e-10
9.95016758505e-12
4.55450609693e-10
6.30215009885e-12
4.54485531931e-10
2.89475887446e-12
4.54818849408e-10
-3.25889508214e-13
4.56401688635e-10
-3.40656559339e-12
4.59199522361e-10
-6.38822605772e-12
4.63190688449e-10
-9.30703755451e-12
4.68365084062e-10
-1.21951569462e-11
4.74722988946e-10
-1.50813065856e-11
4.82273970495e-10
-1.79911697569e-11
4.91035822975e-10
-2.09476203308e-11
5.01033490708e-10
-2.3970792318e-11
5.12297922997e-10
-2.70779881902e-11
5.24864804384e-10
-3.02834197811e-11
5.38773100885e-10
-3.35977721324e-11
5.54063358795e-10
-3.70275797572e-11
5.70775691695e-10
-4.05744069996e-11
5.88947391665e-10
-4.42338311969e-11
6.08610107824e-10
-4.79942404098e-11
6.29786548199e-10
-5.18354787875e-11
6.52486686157e-10
-5.57274031844e-11
6.76703489598e-10
-5.96284553219e-11
7.02408245992e-10
-6.34844022656e-11
7.29545626065e-10
-6.72274492086e-11
7.58028714719e-10
-7.07759712648e-11
7.87734327503e-10
-7.40351293385e-11
8.18499014099e-10
-7.68986084581e-11
8.50116200979e-10
-7.92516276766e-11
8.82334923899e-10
-8.0975212313e-11
9.14860523402e-10
-8.19515111394e-11
9.47357525628e-10
-8.20697327553e-11
9.79454726062e-10
-8.12321411639e-11
1.01075229131e-09
-7.93595564209e-11
1.04083054722e-09
-7.63959667557e-11
1.0692600694e-09
-7.23121032157e-11
1.09561271043e-09
-6.71080288567e-11
1.11947323273e-09
-6.08148634162e-11
1.14045123228e-09
-5.34957576083e-11
1.15819309043e-09
-4.52462748566e-11
1.17239379319e-09
-3.6194315937e-11
1.18280839708e-09
-2.64991729578e-11
1.1892623717e-09
-1.63482108323e-11
1.19165926079e-09
-5.94932166668e-12
1.18998395426e-09
4.4810912155e-12
1.18430074226e-09
1.47323688567e-11
1.17474656603e-09
2.46127553098e-11
1.16152080829e-09
3.39588462117e-11
1.14487354203e-09
4.2639682763e-11
1.1250941963e-09
5.05554585796e-11
1.10250187973e-09
5.76327405404e-11
1.07743757461e-09
6.38189149919e-11
1.05025774325e-09
6.90778264728e-11
1.02132868165e-09
7.33874087462e-11
9.91020956998e-10
7.67393672427e-11
9.59703398605e-10
7.91404754965e-11
9.27736416332e-10
8.06145723694e-11
8.95464832591e-10
8.12041019265e-11
8.63210753857e-10
8.09702262325e-11
8.31267157767e-10
7.99910581599e-11
7.99892812956e-10
7.83581358912e-11
7.6930894919e-10
7.61716838348e-11
7.39697832975e-10
7.35353950164e-11
7.11203157799e-10
7.05514463978e-11
6.83931970919e-10
6.73162881973e-11
6.57957755603e-10
6.39175148807e-11
6.33324259272e-10
6.04318995331e-11
6.10049690482e-10
5.69245008353e-11
5.8813097217e-10
5.3448648105e-11
5.67547819088e-10
5.00465700013e-11
5.48266483399e-10
4.67504386527e-11
5.30243080316e-10
4.35836347536e-11
5.13426456647e-10
4.05620836537e-11
4.9776060402e-10
3.76955574905e-11
4.83186642182e-10
3.49888771024e-11
4.69644413552e-10
3.24429781976e-11
4.57073735901e-10
3.00558281685e-11
4.45415362765e-10
2.7823194908e-11
4.34611698096e-10
2.57392778069e-11
4.24607308891e-10
2.379721606e-11
4.1534927337e-10
2.19894911141e-11
4.06787398149e-10
2.03082402937e-11
3.98874331432e-10
1.87454974231e-11
3.91565595615e-10
1.72933748506e-11
3.84819557059e-10
1.59441993464e-11
3.78597348148e-10
1.46906127816e-11
3.72862752161e-10
1.35256467731e-11
3.67582059763e-10
1.24427793134e-11
3.62723902227e-10
1.14359801798e-11
3.58259065518e-10
1.04997512817e-11
3.5416028634e-10
9.62916739695e-12
3.5040203086e-10
8.81992259121e-12
3.46960254432e-10
8.06838730856e-12
3.43812140969e-10
7.37168123106e-12
3.40935819299e-10
6.72776673259e-12
3.38310055853e-10
6.13556744469e-12
3.3591392457e-10
5.59511492966e-12
3.33726461775e-10
5.10772327935e-12
3.31726323541e-10
4.67618394109e-12
3.29891483706e-10
4.30495773332e-12
3.28199043062e-10
4.00030897256e-12
3.26625276415e-10
3.7702613701e-12
3.25146128205e-10
3.62411972572e-12
3.23738482322e-10
3.57101636153e-12
3.22382620435e-10
3.61632736817e-12
3.21065958053e-10
3.7535158561e-12
3.1978573415e-10
3.94676067231e-12
4.10049735105e-12
9.6399025047e-10
1.29251712913e-10
9.8786975298e-10
2.67565271233e-10
9.90158572328e-10
3.16234292427e-10
9.72937322504e-10
3.15343618624e-10
9.43144899715e-10
2.9223884861e-10
9.06819624711e-10
2.61323089369e-10
8.68148670717e-10
2.29381062875e-10
8.29772750859e-10
1.99341422565e-10
7.93243095669e-10
1.72279861903e-10
7.5939527181e-10
1.4841067924e-10
7.2861386108e-10
1.27569006752e-10
7.01009256051e-10
1.09442925365e-10
6.76532132974e-10
9.36830360468e-11
6.5504601603e-10
7.99518555718e-11
6.36372426179e-10
6.79437656666e-11
6.2031839791e-10
5.73907946847e-11
6.06692796313e-10
4.80618668532e-11
5.95315599343e-10
3.9759321175e-11
5.86022814239e-10
3.23145610708e-11
5.78668725898e-10
2.55837095716e-11
5.73126549449e-10
1.94436462681e-11
5.69288159419e-10
1.37885551044e-11
5.67063312371e-10
8.52699453954e-12
5.66378617826e-10
3.57945071998e-12
5.6717640869e-10
-1.12368318392e-12
5.69413591961e-10
-5.64375177815e-12
5.73060527082e-10
-1.00351642105e-11
5.78099951984e-10
-1.43464655893e-11
5.84525946976e-10
-1.86211551743e-11
5.92342922293e-10
-2.28982852131e-11
6.01564604462e-10
-2.72128552995e-11
6.12212989166e-10
-3.15960084208e-11
6.24317221076e-10
-3.60750275953e-11
6.37912355283e-10
-4.06731256683e-11
6.53037948512e-10
-4.54090161295e-11
6.69736423364e-10
-5.02962498443e-11
6.88051143824e-10
-5.53423027296e-11
7.08024138309e-10
-6.05474035088e-11
7.2969340672e-10
-6.59031010247e-11
7.53089754557e-10
-7.13905888829e-11
7.78233110374e-10
-7.6978834312e-11
8.05128308203e-10
-8.26225995905e-11
8.33760355049e-10
-8.82604994444e-11
8.64089260821e-10
-9.38133037926e-11
8.960445832e-10
-9.91827656434e-11
9.29519934009e-10
-1.04251314208e-10
9.64367796426e-10
-1.08882981805e-10
1.00039510113e-09
-1.12925900934e-10
1.03736007638e-09
-1.16216588341e-10
1.07497089468e-09
-1.1858601356e-10
1.11288655592e-09
-1.19867152921e-10
1.15072026997e-09
-1.19903425055e-10
1.18804535227e-09
-1.18557199702e-10
1.22440339378e-09
-1.15717572545e-10
1.25931428989e-09
-1.11306836439e-10
1.29228766507e-09
-1.05285451594e-10
1.32283527935e-09
-9.76556168614e-11
1.35048405326e-09
-8.84636124821e-11
1.37478934038e-09
-7.78010224182e-11
1.39534813221e-09
-6.58050479671e-11
1.41181212418e-09
-5.26582938512e-11
1.42390068047e-09
-3.8587720721e-11
1.43141300248e-09
-2.38605304951e-11
1.43423746542e-09
-8.77378866216e-12
1.43235572145e-09
6.36282478352e-12
1.42584046846e-09
2.12476055268e-11
1.41484747004e-09
3.56057320638e-11
1.39960349228e-09
4.92027977244e-11
1.38039253028e-09
6.18506147021e-11
1.35754282746e-09
7.3405128463e-11
1.33141617689e-09
8.37593561531e-11
1.30239952736e-09
9.283552845e-11
1.27089814683e-09
1.00579170598e-10
1.23732952345e-09
1.06955996135e-10
1.20211724365e-09
1.11951612075e-10
1.16568420998e-09
1.15573475732e-10
1.12844492552e-09
1.17853825288e-10
1.09079710054e-09
1.1885189755e-10
1.05311326435e-09
1.18654035382e-10
1.01573322578e-09
1.17371072088e-10
9.78958123148e-10
1.15133216256e-10
9.4304653933e-10
1.12083247717e-10
9.08212835719e-10
1.08369080879e-10
8.7462756909e-10
1.04136697332e-10
8.42419647101e-10
9.95241963332e-11
8.11679771829e-10
9.46573779599e-11
7.8246470249e-10
8.96469580976e-11
7.54801915576e-10
8.45872782041e-11
7.28694320535e-10
7.95562345966e-11
7.04124781134e-10
7.46161016839e-11
6.81060277322e-10
6.98149353765e-11
6.59455614907e-10
6.51882905843e-11
6.39256644462e-10
6.07610478652e-11
6.20402990807e-10
5.65492051812e-11
6.02830319167e-10
5.25615429366e-11
5.86472179928e-10
4.88011117504e-11
5.71261480335e-10
4.52665221198e-11
5.57131634178e-10
4.19530354606e-11
5.44017438029e-10
3.88534683423e-11
5.31855719708e-10
3.59589287704e-11
5.20585799019e-10
3.3259406165e-11
5.10149796375e-10
3.07442372998e-11
5.00492818917e-10
2.84024692219e-11
4.9156304965e-10
2.62231384703e-11
4.833117598e-10
2.4195483548e-11
4.75693261414e-10
2.23091055531e-11
4.68664812941e-10
2.05540896555e-11
4.62186488256e-10
1.89210984698e-11
4.56221016249e-10
1.74014467102e-11
4.50733596672e-10
1.59871654762e-11
4.45691695352e-10
1.46710634212e-11
4.41064821267e-10
1.34467915119e-11
4.36824286199e-10
1.23089173412e-11
4.32942948055e-10
1.12530145164e-11
4.29394938493e-10
1.02757716168e-11
4.26155377689e-10
9.37512380625e-12
4.23200081413e-10
8.5504070135e-12
4.20505271869e-10
7.80252894803e-12
4.18047312235e-10
7.13414004849e-12
4.15802499949e-10
6.54976693214e-12
4.13746974308e-10
6.05583202053e-12
4.11856823311e-10
5.66041037838e-12
4.10108504819e-10
5.37243688092e-12
4.08479705141e-10
5.19981539747e-12
4.06950635543e-10
5.14539694874e-12
4.05505147489e-10
5.19900428884e-12
4.04128800728e-10
5.32310798529e-12
5.43254168994e-12
9.57625581142e-10
1.09126131621e-10
9.82820881501e-10
2.42369969425e-10
9.95610130477e-10
3.03445041916e-10
9.93240187159e-10
3.17713559764e-10
9.78850874708e-10
3.0662815848e-10
9.56538736212e-10
2.83635225133e-10
9.29751047322e-10
2.56168748997e-10
9.01017467205e-10
2.28074999914e-10
8.72073364487e-10
2.01223961856e-10
8.44052909767e-10
1.76431131197e-10
8.17661130207e-10
1.53960783539e-10
7.93306897073e-10
1.33797155712e-10
7.7119992386e-10
1.15790006448e-10
7.51419453431e-10
9.97323231611e-11
7.33962025933e-10
8.54011902852e-11
7.18774258721e-10
7.25785589771e-11
7.05775075144e-10
6.10610474573e-11
6.94870590239e-10
5.0663803051e-11
6.85963928798e-10
4.12212194121e-11
6.78961571017e-10
3.25860641766e-11
6.73777334701e-10
2.46278793168e-11
6.70334760343e-10
1.72311260976e-11
6.68568425284e-10
1.02933261172e-11
6.6842454609e-10
3.72332631377e-12
6.69861112131e-10
-2.56025296081e-12
6.72847703641e-10
-8.63034716089e-12
6.77365112644e-10
-1.45525772347e-11
6.83404827262e-10
-2.03861843667e-11
6.90968409607e-10
-2.61847418195e-11
7.00066782939e-10
-3.19966629634e-11
7.10719426152e-10
-3.78655030346e-11
7.22953460665e-10
-4.3830047517e-11
7.36802603591e-10
-4.99241751303e-11
7.52305951876e-10
-5.61764785181e-11
7.69506553378e-10
-6.26096220881e-11
7.88449713756e-10
-6.92394144695e-11
8.09180981604e-10
-7.60735745164e-11
8.31743750496e-10
-8.3110175895e-11
8.56176415451e-10
-9.03357688977e-11
8.82509025856e-10
-9.77232014565e-11
9.10759388377e-10
-1.05229198092e-10
9.4092859656e-10
-1.12791807917e-10
9.72996001142e-10
-1.2032790287e-10
1.00691369248e-09
-1.27730992454e-10
1.04260064545e-09
-1.34869714199e-10
1.07993677955e-09
-1.41587441944e-10
1.11875730565e-09
-1.47703499387e-10
1.15884785044e-09
-1.5301643484e-10
1.19994094123e-09
-1.57309665731e-10
1.24171445838e-09
-1.60359514669e-10
1.28379257964e-09
-1.61945255483e-10
1.32574953289e-09
-1.61860357024e-10
1.36711616667e-09
-1.59923809823e-10
1.40738902762e-09
-1.55990407834e-10
1.44604141714e-09
-1.49959198838e-10
1.48253586742e-09
-1.41779873984e-10
1.51633758895e-09
-1.31457310622e-10
1.54692852751e-09
-1.19054524424e-10
1.57382160822e-09
-1.04694078837e-10
1.59657475836e-09
-8.85581774084e-11
1.61480477371e-09
-7.08882933538e-11
1.62820158219e-09
-5.19845193159e-11
1.63654249157e-09
-3.22014367688e-11
1.63970364857e-09
-1.19349496986e-11
1.63766515384e-09
8.40130845229e-12
1.63050838646e-09
2.84043553381e-11
1.61840647264e-09
4.77076225591e-11
1.60160996387e-09
6.59992783315e-11
1.58043067024e-09
8.30298763288e-11
1.55522699104e-09
9.86087728698e-11
1.52639258173e-09
1.12593728914e-10
1.49434795614e-09
1.24880116698e-10
1.4595337849e-09
1.35393304548e-10
1.42240488922e-09
1.44084855316e-10
1.38342405964e-09
1.50932406541e-10
1.34305488535e-09
1.55942616787e-10
1.30175322576e-09
1.59155453813e-10
1.25995767659e-09
1.60647418045e-10
1.21807993742e-09
1.60531748364e-10
1.17649615352e-09
1.58954832301e-10
1.13554013105e-09
1.56089217487e-10
1.09549896716e-09
1.52124392726e-10
1.05661123568e-09
1.47256795692e-10
1.01906752586e-09
1.4168039254e-10
9.83012901398e-10
1.35578808019e-10
9.48550743224e-10
1.29119525003e-10
9.15747440179e-10
1.22450251415e-10
8.84637462136e-10
1.15697247719e-10
8.55228451295e-10
1.08965237878e-10
8.27506074306e-10
1.02338471903e-10
8.01438471784e-10
9.58825317234e-11
7.76980217949e-10
8.96465387e-11
7.54075758435e-10
8.3665501969e-11
7.32662333108e-10
7.7962625317e-11
7.12672414466e-10
7.25514565044e-11
6.94035706371e-10
6.743781484e-11
6.76680753554e-10
6.26214699375e-11
6.60536214018e-10
5.80975699881e-11
6.45531843948e-10
5.38578333597e-11
6.31599241354e-10
4.9891526273e-11
6.1867238936e-10
4.61862530109e-11
6.06688035373e-10
4.27285861022e-11
5.95585936778e-10
3.95045625859e-11
5.85308999489e-10
3.65000705091e-11
5.75803330767e-10
3.3701146996e-11
5.67018224309e-10
3.10942067439e-11
5.58906091635e-10
2.86662170668e-11
5.51422351337e-10
2.64048335408e-11
5.44525284691e-10
2.4298508167e-11
5.38175864505e-10
2.23365805426e-11
5.32337561872e-10
2.05093610078e-11
5.26976134639e-10
1.88082138076e-11
5.22059400064e-10
1.72256470955e-11
5.17556994241e-10
1.57554156746e-11
5.13440120695e-10
1.43926406679e-11
5.09681292144e-10
1.31339480784e-11
5.06254071252e-10
1.19776238661e-11
5.03132820405e-10
1.0923776053e-11
5.0029247576e-10
9.97448128839e-12
4.97708368997e-10
9.13387071009e-12
4.95356128966e-10
8.40806955274e-12
4.9321170326e-10
7.80483417396e-12
4.91251533375e-10
7.33260551026e-12
4.89452862707e-10
6.99848551195e-12
4.87793948596e-10
6.80431116735e-12
4.86253316486e-10
6.73963690156e-12
4.84805749918e-10
6.77067516626e-12
6.82702829358e-12
9.53028998631e-10
9.35971319324e-11
9.76830322705e-10
2.18568643016e-10
9.94518856731e-10
2.85756505277e-10
1.00136480683e-09
3.10867606915e-10
9.97986068847e-10
3.10006893479e-10
9.86783928956e-10
2.94837361946e-10
9.70293743671e-10
2.72658931187e-10
9.50642386231e-10
2.47726354272e-10
9.29456425175e-10
2.22409919841e-10
9.07919125195e-10
1.9796842811e-10
8.86861282401e-10
1.75018623261e-10
8.66847281677e-10
1.53811153346e-10
8.4824600559e-10
1.3439127942e-10
8.31285954396e-10
1.16692371208e-10
8.16096845872e-10
1.00590295622e-10
8.02740470152e-10
8.5934931461e-11
7.9123330467e-10
7.25682096477e-11
7.81562933676e-10
6.03341706881e-11
7.73699866087e-10
4.90842835688e-11
7.67605963958e-10
3.86799627879e-11
7.63240389928e-10
2.89934497304e-11
7.60563747391e-10
1.99077649073e-11
7.59540908982e-10
1.13161606754e-11
7.6014289515e-10
3.12133615892e-12
7.62348065115e-10
-4.76542705943e-12
7.66142797454e-10
-1.24250837902e-11
7.71521815667e-10
-1.99315998978e-11
7.78488233083e-10
-2.73526063976e-11
7.8705337582e-10
-3.47498893265e-11
7.9723641913e-10
-4.21797111898e-11
8.0906385232e-10
-4.96929412646e-11
8.22568771443e-10
-5.73349717715e-11
8.37789985622e-10
-6.51453944859e-11
8.54770911348e-10
-7.31574094076e-11
8.73558218767e-10
-8.13969345816e-11
8.9420018486e-10
-8.98813854559e-11
9.16744700436e-10
-9.86180946937e-11
9.41236871798e-10
-1.07602351438e-10
9.67716154536e-10
-1.16815055247e-10
9.96212958149e-10
-1.2622000795e-10
1.02674466836e-09
-1.35760910275e-10
1.05931105295e-09
-1.45358193366e-10
1.09388905106e-09
-1.5490590053e-10
1.13042700152e-09
-1.64268940928e-10
1.16883844714e-09
-1.73281156092e-10
1.20899576382e-09
-1.81744752906e-10
1.25072400025e-09
-1.89431727889e-10