/*--------------------------------*- C++ -*----------------------------------*\
  =========                 |
  \\      /  F ield         | OpenFOAM: The Open Source CFD Toolbox
   \\    /   O peration     | Website:  https://openfoam.org
    \\  /    A nd           | Version:  7
     \\/     M anipulation  |
\*---------------------------------------------------------------------------*/
FoamFile
{
    version     2.0;
    format      ascii;
    class       volVectorField;
    location    "780";
    object      U;
}
// * * * * * * * * * * * * * * * * * * * * * * * * * * * * * * * * * * * * * //

dimensions      [0 1 -1 0 0 0 0];

internalField   nonuniform List<vector> 
8192
(
(0.00104344972395 0.000156550276053 0)
(0.000759287954204 0.000127611495211 0)
(0.000549278717287 8.23977444324e-05 0)
(0.000414039710252 5.28412647026e-05 0)
(0.000326266085104 3.49323620082e-05 0)
(0.000267303227315 2.40304970092e-05 0)
(0.000226081770637 1.7190960746e-05 0)
(0.000196160770997 1.27300399205e-05 0)
(0.000173729785937 9.70094615475e-06 0)
(0.000156464524978 7.56431582557e-06 0)
(0.000142895439939 6.00477024731e-06 0)
(0.000132058780245 4.83189049389e-06 0)
(0.000123300186921 3.92670388994e-06 0)
(0.000116161180728 3.21230337328e-06 0)
(0.000110311545074 2.637333356e-06 0)
(0.000105507763134 2.16644966414e-06 0)
(0.000101566668697 1.77464585087e-06 0)
(9.83482449154e-05 1.44377900702e-06 0)
(9.57440857894e-05 1.16038118904e-06 0)
(9.36694625068e-05 9.1424315638e-07 0)
(9.20577459337e-05 6.97474469581e-07 0)
(9.08564074732e-05 5.03865033715e-07 0)
(9.00241015579e-05 3.28441912702e-07 0)
(8.95285050546e-05 1.67155611926e-07 0)
(8.93446964991e-05 1.66539563922e-08 0)
(8.94539269881e-05 -1.25883435524e-07 0)
(8.98426785454e-05 -2.62867108946e-07 0)
(9.05019360018e-05 -3.96389320149e-07 0)
(9.14266199946e-05 -5.28293617361e-07 0)
(9.26151409314e-05 -6.60226215793e-07 0)
(9.40690414381e-05 -7.93673115004e-07 0)
(9.57927009919e-05 -9.29985158239e-07 0)
(9.77930798717e-05 -1.07039229901e-06 0)
(0.000100079481089 -1.21600730674e-06 0)
(0.000102663308961 -1.36781871049e-06 0)
(0.000105557801887 -1.52667205247e-06 0)
(0.000108777714873 -1.69323839245e-06 0)
(0.000112338924895 -1.86796862648e-06 0)
(0.000116257929661 -2.05103258384e-06 0)
(0.0001205512087 -2.24224224996e-06 0)
(0.000125234415891 -2.44095997796e-06 0)
(0.000130321376098 -2.6459943972e-06 0)
(0.000135822867345 -2.85549003418e-06 0)
(0.000141745185646 -3.06682034577e-06 0)
(0.000148088513736 -3.2764986025e-06 0)
(0.00015484514773 -3.48012491315e-06 0)
(0.000161997674916 -3.67239035332e-06 0)
(0.000169517236439 -3.84715771945e-06 0)
(0.000177362041601 -3.99763239687e-06 0)
(0.000185476315098 -4.11662442784e-06 0)
(0.000193789844714 -4.19688691084e-06 0)
(0.000202218250746 -4.23149932042e-06 0)
(0.000210664025828 -4.21425460105e-06 0)
(0.000219018312416 -4.14000971381e-06 0)
(0.000227163317924 -4.00497275804e-06 0)
(0.000234975232603 -3.80691855965e-06 0)
(0.000242327515444 -3.54534112774e-06 0)
(0.000249094437769 -3.22155886013e-06 0)
(0.00025515480948 -2.83879200214e-06 0)
(0.000260395852773 -2.40223263276e-06 0)
(0.00026471721358 -1.91911240993e-06 0)
(0.000268035054643 -1.39871642513e-06 0)
(0.000270285993872 -8.52214648508e-07 0)
(0.000271430383585 -2.92171352853e-07 0)
(0.000271454266042 2.68287978196e-07 0)
(0.000270369479772 8.16492740829e-07 0)
(0.000268211812775 1.34116422356e-06 0)
(0.000265037566466 1.83306784569e-06 0)
(0.000260919236259 2.28524429033e-06 0)
(0.000255941144775 2.69282575195e-06 0)
(0.000250195704946 3.05258979765e-06 0)
(0.000243780626128 3.36246248441e-06 0)
(0.000236797000679 3.62113478515e-06 0)
(0.000229347969698 3.82786698343e-06 0)
(0.000221537589976 3.98248308758e-06 0)
(0.000213469567501 4.08550984248e-06 0)
(0.000205245649171 4.13837953449e-06 0)
(0.000196963639814 4.14360186469e-06 0)
(0.000188715185346 4.10482596602e-06 0)
(0.000180583579226 4.02675507201e-06 0)
(0.000172641878471 3.91492231468e-06 0)
(0.000164951563264 3.77537131912e-06 0)
(0.000157561871996 3.6143001921e-06 0)
(0.000150509828601 3.43772522848e-06 0)
(0.000143820881623 3.25120548223e-06 0)
(0.000137510011249 3.05965022146e-06 0)
(0.000131583135235 2.86721258795e-06 0)
(0.000126038650983 2.67725977965e-06 0)
(0.000120868978181 2.49240230788e-06 0)
(0.000116062002972 2.31456320359e-06 0)
(0.000111602361665 2.14506928026e-06 0)
(0.000107472533803 1.98475049608e-06 0)
(0.000103653738652 1.83403718556e-06 0)
(0.000100126645421 1.69304908381e-06 0)
(9.68719170737e-05 1.56167271779e-06 0)
(9.38706118573e-05 1.43962628874e-06 0)
(9.11044674249e-05 1.32651220503e-06 0)
(8.85560908975e-05 1.22185860253e-06 0)
(8.6209075565e-05 1.12515118744e-06 0)
(8.4048061782e-05 1.03585719834e-06 0)
(8.20587564759e-05 9.53442832167e-07 0)
(8.0227922785e-05 8.77385687655e-07 0)
(7.85433488083e-05 8.07183210617e-07 0)
(7.69938023026e-05 7.4235830208e-07 0)
(7.55689763885e-05 6.82462700525e-07 0)
(7.42594298856e-05 6.27078971273e-07 0)
(7.30565247204e-05 5.75821444176e-07 0)
(7.19523618878e-05 5.28336722877e-07 0)
(7.09397166285e-05 4.84303959456e-07 0)
(7.00119727557e-05 4.43435430514e-07 0)
(6.91630553571e-05 4.05477586376e-07 0)
(6.83873603415e-05 3.70213156922e-07 0)
(6.76796784102e-05 3.37464621335e-07 0)
(6.70351098914e-05 3.07099874674e-07 0)
(6.64489653209e-05 2.79040816399e-07 0)
(6.59166444175e-05 2.53276366083e-07 0)
(6.54334827866e-05 2.29881719782e-07 0)
(6.49945505841e-05 2.09047134351e-07 0)
(6.45943792846e-05 1.91121038384e-07 0)
(6.42265795235e-05 1.7667584777e-07 0)
(6.38832910336e-05 1.6661005555e-07 0)
(6.3554368848e-05 1.62309872287e-07 0)
(6.32261494942e-05 1.65907589794e-07 0)
(6.28795521544e-05 1.80688238418e-07 0)
(6.2487191143e-05 2.11671603601e-07 0)
(6.20094361116e-05 2.6608250907e-07 0)
(6.13915168994e-05 3.51836091277e-07 0)
(6.05882055931e-05 4.51474957729e-07 0)
(0.00121016012018 0.000302940433821 0)
(0.00116029707331 0.00031524615984 0)
(0.0010269780195 0.000238091377397 0)
(0.000887692583572 0.00017167207976 0)
(0.000767260669447 0.00012430708984 0)
(0.000669150280951 9.17290183034e-05 0)
(0.000590650404819 6.92137747789e-05 0)
(0.000527929329182 5.3349303577e-05 0)
(0.000477545734412 4.18962647223e-05 0)
(0.000436761325727 3.34186693144e-05 0)
(0.000403488395563 2.69924344037e-05 0)
(0.00037615555461 2.20137294575e-05 0)
(0.000353579252961 1.80797623995e-05 0)
(0.00033486183239 1.49156741474e-05 0)
(0.00031931589598 1.23295371737e-05 0)
(0.000306409626779 1.01842995178e-05 0)
(0.000295727530062 8.37998966971e-06 0)
(0.00028694218184 6.84220969462e-06 0)
(0.000279793749558 5.51454438437e-06 0)
(0.000274075001783 4.35345346111e-06 0)
(0.000269620216961 3.32476796233e-06 0)
(0.000266296886727 2.40124259192e-06 0)
(0.000263999443295 1.56081600991e-06 0)
(0.000262644469232 7.85354343603e-07 0)
(0.000262167004756 5.97304763589e-08 0)
(0.000262517675593 -6.2885908891e-07 0)
(0.000263660438042 -1.29140327751e-06 0)
(0.000265570791327 -1.93746168357e-06 0)
(0.000268234345067 -2.57545670975e-06 0)
(0.000271645652567 -3.21288915573e-06 0)
(0.000275807236715 -3.85649222265e-06 0)
(0.000280728746798 -4.51233278074e-06 0)
(0.000286426191086 -5.18586452134e-06 0)
(0.000292921193013 -5.88193434671e-06 0)
(0.000300240219017 -6.60474094046e-06 0)
(0.000308413724342 -7.35774254835e-06 0)
(0.000317475160056 -8.14350993443e-06 0)
(0.000327459781224 -8.96352022493e-06 0)
(0.000338403193797 -9.81788861383e-06 0)
(0.000350339578149 -1.07050379408e-05 0)
(0.000363299532554 -1.16213119324e-05 0)
(0.000377307493195 -1.25605467202e-05 0)
(0.000392378711521 -1.35136277462e-05 0)
(0.00040851580805 -1.44680745974e-05 0)
(0.00042570497548 -1.54077133284e-05 0)
(0.000443911972498 -1.63125106448e-05 0)
(0.000463078127427 -1.71586518743e-05 0)
(0.000483116647071 -1.79189379559e-05 0)
(0.000503909584073 -1.85635502245e-05 0)
(0.000525305836351 -1.90611835623e-05 0)
(0.000547120517624 -1.93804852961e-05 0)
(0.000569135943105 -1.949167488e-05 0)
(0.000591104331068 -1.93681809338e-05 0)
(0.000612752161226 -1.89881362662e-05 0)
(0.000633785995571 -1.83356206551e-05 0)
(0.000653899489246 -1.74016134922e-05 0)
(0.000672781303879 -1.6184679695e-05 0)
(0.00069012366356 -1.46914417312e-05 0)
(0.000705631338012 -1.29369001212e-05 0)
(0.000719030884534 -1.09446665603e-05 0)
(0.000730080001853 -8.74711816755e-06 0)
(0.000738576757973 -6.38528040359e-06 0)
(0.000744368151499 -3.90796824759e-06 0)
(0.000747357029545 -1.36968337686e-06 0)
(0.000747506150119 1.17278583052e-06 0)
(0.00074483846393 3.6644431864e-06 0)
(0.000739433455494 6.05585269525e-06 0)
(0.000731420232667 8.30580062743e-06 0)
(0.000720968679225 1.03823371651e-05 0)
(0.000708280224033 1.22622129211e-05 0)
(0.000693579514661 1.39292781974e-05 0)
(0.000677107646942 1.53726417297e-05 0)
(0.000659116930118 1.65852154317e-05 0)
(0.000639866724669 1.75629386207e-05 0)
(0.000619619726346 1.83047052011e-05 0)
(0.000598638122018 1.88128315354e-05 0)
(0.000577179253804 1.90937639265e-05 0)
(0.000555490738242 1.91586654626e-05 0)
(0.000533805301065 1.90235813692e-05 0)
(0.000512335802609 1.87090363958e-05 0)
(0.000491270987657 1.82390939411e-05 0)
(0.000470772404348 1.76400406449e-05 0)
(0.000450972752275 1.69389217823e-05 0)
(0.000431975705586 1.61621462428e-05 0)
(0.000413857068276 1.5334325935e-05 0)
(0.000396666989026 1.44774408614e-05 0)
(0.00038043290225 1.36103500872e-05 0)
(0.000365162861986 1.27486155909e-05 0)
(0.000350848978243 1.19045748445e-05 0)
(0.000337470730887 1.10875876164e-05 0)
(0.000324998007157 1.03043864741e-05 0)
(0.0003133937737 9.55947300975e-06 0)
(0.000302616346465 8.85551694186e-06 0)
(0.000292621260071 8.19373005121e-06 0)
(0.000283362763313 7.57419893326e-06 0)
(0.000274794981657 6.99616980198e-06 0)
(0.000266872793632 6.45828462616e-06 0)
(0.000259552468495 5.95877181695e-06 0)
(0.000252792109619 5.49559655078e-06 0)
(0.000246551943203 5.06657673038e-06 0)
(0.000240794486327 4.66947045463e-06 0)
(0.000235484622725 4.30204057115e-06 0)
(0.000230589609353 3.96210110957e-06 0)
(0.000226079032081 3.64754982596e-06 0)
(0.000221924724741 3.35639028508e-06 0)
(0.000218100662253 3.08674644496e-06 0)
(0.000214582835595 2.8368720866e-06 0)
(0.000211349113858 2.60515718081e-06 0)
(0.000208379096517 2.39013289032e-06 0)
(0.000205653957073 2.19047688345e-06 0)
(0.000203156277495 2.00502048191e-06 0)
(0.000200869871081 1.83275939725e-06 0)
(0.000198779589516 1.67286995115e-06 0)
(0.000196871107799 1.52473326117e-06 0)
(0.000195130678252 1.38797047933e-06 0)
(0.000193544841905 1.26249338874e-06 0)
(0.000192100082068 1.14857616421e-06 0)
(0.000190782400997 1.04695659701e-06 0)
(0.000189576796841 9.58978382797e-07 0)
(0.000188466616384 8.86790887998e-07 0)
(0.000187432764662 8.33628315318e-07 0)
(0.000186452778671 8.04193903273e-07 0)
(0.000185499853218 8.05163592309e-07 0)
(0.000184542128831 8.457503486e-07 0)
(0.000183543140997 9.37955866068e-07 0)
(0.000182465809748 1.09488296927e-06 0)
(0.000181286779049 1.31998469605e-06 0)
(0.000180025937109 1.54747935581e-06 0)
(0.00122477843583 0.000268001880908 0)
(0.00124109389272 0.000383732309238 0)
(0.00119625622796 0.000347761952322 0)
(0.00111362317022 0.000283920002397 0)
(0.00102081892934 0.000225295324796 0)
(0.000931540918189 0.000178129184886 0)
(0.000851213165857 0.000141641238266 0)
(0.000781222983419 0.000113633099685 0)
(0.000721195797695 9.20232506179e-05 0)
(0.000670101436909 7.51704544213e-05 0)
(0.000626758368835 6.18566490928e-05 0)
(0.000590045039251 5.11956868903e-05 0)
(0.000558974736392 4.25444110773e-05 0)
(0.000532710058551 3.54331254948e-05 0)
(0.000510552898014 2.95151843817e-05 0)
(0.000491926324091 2.45314970294e-05 0)
(0.000476355453874 2.02857606596e-05 0)
(0.000463450080046 1.66271622874e-05 0)
(0.00045288988537 1.34382202325e-05 0)
(0.000444412253536 1.06261586468e-05 0)
(0.00043780238054 8.11672195068e-06 0)
(0.000432885312859 5.84968779703e-06 0)
(0.000429519554119 3.77557417202e-06 0)
(0.000427591929784 1.85319569451e-06 0)
(0.000427013452896 4.78315252566e-08 0)
(0.000427715982272 -1.67015937619e-06 0)
(0.000429649503827 -3.32638605693e-06 0)
(0.000432779901438 -4.94322885971e-06 0)
(0.000437087108227 -6.54044906427e-06 0)
(0.000442563543791 -8.1356387326e-06 0)
(0.000449212756619 -9.74453825899e-06 0)
(0.000457048199287 -1.13812377763e-05 0)
(0.00046609206844 -1.30582707394e-05 0)
(0.000476374143008 -1.47866017045e-05 0)
(0.000487930553083 -1.65755058342e-05 0)
(0.000500802409239 -1.84323341475e-05 0)
(0.000515034218668 -2.03621570436e-05 0)
(0.000530672011496 -2.23672789054e-05 0)
(0.00054776109966 -2.44466203375e-05 0)
(0.000566343394027 -2.65949720835e-05 0)
(0.000586454215672 -2.88021380531e-05 0)
(0.000608118557947 -3.10520043512e-05 0)
(0.000631346790573 -3.33215980722e-05 0)
(0.00065612984884 -3.55802317754e-05 0)
(0.000682434021554 -3.77888642534e-05 0)
(0.000710195539169 -3.98998371313e-05 0)
(0.000739315261612 -4.18571599815e-05 0)
(0.000769653860288 -4.35974995347e-05 0)
(0.000801027960015 -4.50519707239e-05 0)
(0.000833207729984 -4.6148724643e-05 0)
(0.000865916366509 -4.68161955783e-05 0)
(0.000898831786315 -4.69867381964e-05 0)
(0.000931590661456 -4.66003046347e-05 0)
(0.000963794716023 -4.56078180047e-05 0)
(0.000995019024101 -4.3974000422e-05 0)
(0.00102482194176 -4.16795644027e-05 0)
(0.00105275628038 -3.87228038478e-05 0)
(0.00107838135357 -3.51206771509e-05 0)
(0.00110127556772 -3.0909487461e-05 0)
(0.0011210492702 -2.61452724013e-05 0)
(0.00113735761091 -2.09039269465e-05 0)
(0.00114991310555 -1.52806934249e-05 0)
(0.00115849723599 -9.3880661418e-06 0)
(0.00116296983502 -3.35106623654e-06 0)
(0.00116327465599 2.70020665563e-06 0)
(0.00115943990659 8.63942117191e-06 0)
(0.00115157354485 1.4352192839e-05 0)
(0.00113985423613 1.97419261513e-05 0)
(0.00112451966455 2.47322586937e-05 0)
(0.00110585420243 2.9266120631e-05 0)
(0.00108417760388 3.33025824098e-05 0)
(0.00105983555434 3.68131530979e-05 0)
(0.00103319204872 3.97788214133e-05 0)
(0.00100462304288 4.21884375673e-05 0)
(0.000974510645212 4.40384966007e-05 0)
(0.000943237175498 4.53340109659e-05 0)
(0.000911178665647 4.60898632305e-05 0)
(0.000878697757992 4.63318950483e-05 0)
(0.000846136350294 4.60971081481e-05 0)
(0.000813808602346 4.54326738441e-05 0)
(0.000781994985027 4.43938131759e-05 0)
(0.00075093793287 4.30408879032e-05 0)
(0.000720839424631 4.14361723226e-05 0)
(0.000691860545114 3.96407655405e-05 0)
(0.000664122843394 3.77119950228e-05 0)
(0.000637711138008 3.57015109827e-05 0)
(0.000612677340773 3.36541232207e-05 0)
(0.00058904486768 3.16073191612e-05 0)
(0.000566813255819 2.95913337654e-05 0)
(0.000545962684935 2.76296168271e-05 0)
(0.000526458190096 2.57395482305e-05 0)
(0.000508253433708 2.39332755571e-05 0)
(0.000491293972804 2.2218578657e-05 0)
(0.000475520008609 2.05996963785e-05 0)
(0.000460868640332 1.90780761439e-05 0)
(0.000447275666616 1.76530272843e-05 0)
(0.000434676989005 1.6322272739e-05 0)
(0.000423009675221 1.5082403081e-05 0)
(0.00041221273855 1.39292416826e-05 0)
(0.000402227685128 1.28581326025e-05 0)
(0.00039299887494 1.18641630803e-05 0)
(0.000384473735769 1.09423323865e-05 0)
(0.000376602862922 1.00876774022e-05 0)
(0.000369340031504 9.29536433074e-06 0)
(0.000362642142654 8.56075430117e-06 0)
(0.000356469120413 7.87944972421e-06 0)
(0.00035078377181 7.24732689049e-06 0)
(0.00034555161925 6.66055977588e-06 0)
(0.000340740711226 6.11563907e-06 0)
(0.000336321414768 5.6093903555e-06 0)
(0.000332266190618 5.13899486532e-06 0)
(0.000328549349985 4.70201660728e-06 0)
(0.000325146789688 4.29643961775e-06 0)
(0.000322035700574 3.92071996062e-06 0)
(0.000319194242438 3.5738575821e-06 0)
(0.000316601177345 3.25549450181e-06 0)
(0.000314235453018 2.96604673238e-06 0)
(0.000312075729759 2.7068787173e-06 0)
(0.000310099850582 2.4805289132e-06 0)
(0.000308284269283 2.29099252644e-06 0)
(0.000306603483628 2.1440557063e-06 0)
(0.000305029587152 2.04764199513e-06 0)
(0.000303532183824 2.01203873028e-06 0)
(0.000302079159512 2.04961979539e-06 0)
(0.000300639248807 2.172982396e-06 0)
(0.000299188048809 2.3883865813e-06 0)
(0.000297718828695 2.67473183499e-06 0)
(0.000296250669346 2.92173393031e-06 0)
(0.00122193686733 0.000221286579764 0)
(0.00125344672359 0.000382622300538 0)
(0.00125123323944 0.000395923111852 0)
(0.00121373763626 0.000355887504443 0)
(0.00115598338877 0.00030388631071 0)
(0.00109037033179 0.000254429266075 0)
(0.00102436634469 0.00021167289523 0)
(0.000961926209435 0.000176031759075 0)
(0.000904869919373 0.000146708065663 0)
(0.000853813588505 0.00012263632969 0)
(0.000808734381362 0.00010281304771 0)
(0.00076929662363 8.6390374265e-05 0)
(0.000735033510657 7.26831382048e-05 0)
(0.000705444756734 6.11478287884e-05 0)
(0.000680046502534 5.13558944527e-05 0)
(0.000658394682941 4.2969179065e-05 0)
(0.000640094002304 3.57196280157e-05 0)
(0.000624799377012 2.93932925282e-05 0)
(0.000612213664948 2.381799513e-05 0)
(0.000602083771399 1.88539074399e-05 0)
(0.000594196245054 1.43863707017e-05 0)
(0.000588372932372 1.03204174933e-05 0)
(0.000584466957402 6.57657613808e-06 0)
(0.000582359130639 3.08764264249e-06 0)
(0.000581954804057 -2.03814279967e-07 0)
(0.000583181144348 -3.34738570258e-06 0)
(0.000585984775038 -6.3863145653e-06 0)
(0.000590329734918 -9.35866053118e-06 0)
(0.000596195694407 -1.22981864174e-05 0)
(0.000603576366725 -1.52350120075e-05 0)
(0.000612478054043 -1.81960677958e-05 0)
(0.000622918267821 -2.12053671655e-05 0)
(0.000634924360757 -2.42841056006e-05 0)
(0.000648532104771 -2.74505871062e-05 0)
(0.000663784145524 -3.07199722642e-05 0)
(0.000680728259372 -3.41038378164e-05 0)
(0.000699415334195 -3.76095365462e-05 0)
(0.000719896992314 -4.12393477867e-05 0)
(0.00074222277335 -4.49894162735e-05 0)
(0.000766436799673 -4.8848490255e-05 0)
(0.000792573859854 -5.27964925227e-05 0)
(0.000820654869987 -5.68029900662e-05 0)
(0.000850681712483 -6.08256717662e-05 0)
(0.000882631510777 -6.48089949737e-05 0)
(0.000916450478116 -6.8683217021e-05 0)
(0.000952047578102 -7.23640730091e-05 0)
(0.000989288347022 -7.57533812372e-05 0)
(0.00102798933863 -7.87408287114e-05 0)
(0.00106791373765 -8.12070946093e-05 0)
(0.00110876871992 -8.30283013889e-05 0)
(0.00115020508627 -8.40815643223e-05 0)
(0.00119181955138 -8.42511916002e-05 0)
(0.00123315984108 -8.34349486469e-05 0)
(0.00127373249112 -8.15498075617e-05 0)
(0.00131301301666 -7.85367712486e-05 0)
(0.00135045799463 -7.43646155282e-05 0)
(0.00138551857909 -6.90326037488e-05 0)
(0.00141765500363 -6.25723068662e-05 0)
(0.00144635165761 -5.50486642112e-05 0)
(0.00147113236654 -4.6560454382e-05 0)
(0.00149157560552 -3.72402833886e-05 0)
(0.00150732940177 -2.72536001394e-05 0)
(0.00151812529202 -1.67951674754e-05 0)
(0.00152378984479 -6.08112007921e-06 0)
(0.00152425165764 4.66360718123e-06 0)
(0.00151954220578 1.52201867946e-05 0)
(0.0015097902773 2.53896677655e-05 0)
(0.00149521111957 3.50028549451e-05 0)
(0.00147609238421 4.39245627873e-05 0)
(0.00145277935253 5.20522269529e-05 0)
(0.00142566148866 5.93108479559e-05 0)
(0.00139516125078 6.56470794475e-05 0)
(0.00136172500344 7.10245497093e-05 0)
(0.00132581531194 7.54213075276e-05 0)
(0.00128790376873 7.88294695225e-05 0)
(0.00124846358759 8.12565935907e-05 0)
(0.00120796148156 8.27278051549e-05 0)
(0.00116684879931 8.32874566833e-05 0)
(0.00112555237533 8.29992975337e-05 0)
(0.00108446586344 8.19446697426e-05 0)
(0.00104394238126 8.02188485199e-05 0)
(0.00100428912777 7.79260962317e-05 0)
(0.000965764340586 7.51742035429e-05 0)
(0.000928576634095 7.20692702208e-05 0)
(0.000892886482379 6.87112990163e-05 0)
(0.000858809424974 6.51909298664e-05 0)
(0.00082642048952 6.15874014226e-05 0)
(0.000795759327843 5.79676438845e-05 0)
(0.000766835624097 5.43862960159e-05 0)
(0.000739634426406 5.08863972151e-05 0)
(0.000714121153592 4.75005117743e-05 0)
(0.000690246120777 4.42520792858e-05 0)
(0.000667948503656 4.11568324391e-05 0)
(0.000647159718827 3.8224172205e-05 0)
(0.000627806237569 3.54584312739e-05 0)
(0.000609811875669 3.28599898176e-05 0)
(0.000593099615649 3.04262303457e-05 0)
(0.000577593023146 2.81523346077e-05 0)
(0.000563217318951 2.60319341157e-05 0)
(0.000549900164471 2.40576313489e-05 0)
(0.000537572212647 2.22214097709e-05 0)
(0.000526167469772 2.0514951291e-05 0)
(0.000515623506932 1.8929877854e-05 0)
(0.00050588155331 1.74579327112e-05 0)
(0.000496886497712 1.60911142983e-05 0)
(0.000488586819333 1.48217744307e-05 0)
(0.000480934464198 1.36426901829e-05 0)
(0.000473884679631 1.25471180785e-05 0)
(0.000467395815673 1.15288374542e-05 0)
(0.000461429099357 1.05821897228e-05 0)
(0.000455948385189 9.70211910384e-06 0)
(0.000450919883008 8.88422082532e-06 0)
(0.000446311862587 8.12480216541e-06 0)
(0.000442094333057 7.420962562e-06 0)
(0.000438238694572 6.77069862802e-06 0)
(0.000434717360097 6.17304064376e-06 0)
(0.00043150334747 5.62822584294e-06 0)
(0.000428569847261 5.13791215342e-06 0)
(0.000425889782602 4.70542929109e-06 0)
(0.000423435396638 4.33605043554e-06 0)
(0.000421177937131 4.03723518897e-06 0)
(0.000419087564465 3.81872524101e-06 0)
(0.000417133698957 3.69221935222e-06 0)
(0.000415286150737 3.67000815659e-06 0)
(0.000413517505765 3.76114764916e-06 0)
(0.000411807090232 3.96183626901e-06 0)
(0.00041014508301 4.23251006049e-06 0)
(0.000408527151211 4.4500478369e-06 0)
(0.0012169537603 0.000182395952888 0)
(0.00124919040221 0.000357766429518 0)
(0.0012659381282 0.000406244739648 0)
(0.00125638137269 0.000392618233023 0)
(0.00122629262222 0.000354998576857 0)
(0.00118397729563 0.00031124537968 0)
(0.00113597970907 0.000268858351237 0)
(0.00108666970981 0.000230596433488 0)
(0.00103873014178 0.000197139245231 0)
(0.000993688555186 0.000168303063472 0)
(0.000952325845049 0.000143588227095 0)
(0.000914958794963 0.000122419998572 0)
(0.000881626488976 0.000104248928707 0)
(0.000852210015362 8.85872616337e-05 0)
(0.000826507803014 7.50169239154e-05 0)
(0.000804282127417 6.31856404875e-05 0)
(0.000785287164302 5.2798805961e-05 0)
(0.00076928537322 4.36105264803e-05 0)
(0.000756056584692 3.54152571781e-05 0)
(0.000745402585688 2.80405332237e-05 0)
(0.000737148976222 2.13408758553e-05 0)
(0.000731145413675 1.51927825212e-05 0)
(0.000727264941945 9.49065256857e-06 0)
(0.000725402835326 4.14349414044e-06 0)
(0.000725475216971 -9.27726522964e-07 0)
(0.000727417600417 -5.79220311778e-06 0)
(0.000731183436187 -1.05109697717e-05 0)
(0.000736742706602 -1.5138242012e-05 0)
(0.000744080575334 -1.97224397571e-05 0)
(0.000753196076332 -2.43069387511e-05 0)
(0.000764100817123 -2.89305760361e-05 0)
(0.000776817659922 -3.3627922401e-05 0)
(0.000791379334555 -3.84293247445e-05 0)
(0.00080782692887 -4.33607128694e-05 0)
(0.000826208194428 -4.84431589828e-05 0)
(0.000846575598001 -5.36921740651e-05 0)
(0.000868984043001 -5.91167247916e-05 0)
(0.000893488180566 -6.47179587254e-05 0)
(0.000920139228819 -7.04876366219e-05 0)
(0.000948981223217 -7.64062907474e-05 0)
(0.000980046633556 -8.24411603837e-05 0)
(0.00101335130789 -8.85440017759e-05 0)
(0.00104888874448 -9.46489310505e-05 0)
(0.00108662375416 -0.000100670531877 0)
(0.00112648566017 -0.000106502537505 0)
(0.00116836129101 -0.000112017462702 0)
(0.00121208814748 -0.000117067591132 0)
(0.00125744825443 -0.000121487686011 0)
(0.00130416331361 -0.000125099658251 0)
(0.00135189182148 -0.000127719184559 0)
(0.00140022876838 -0.000129163944999 0)
(0.00144870836857 -0.000129262820998 0)
(0.00149680999823 -0.000127865178154 0)
(0.00154396719747 -0.000124849362538 0)
(0.00158957931755 -0.000120129794045 0)
(0.00163302525118 -0.000113662435078 0)
(0.00167367868443 -0.00010544873326 0)
(0.00171092437287 -9.55382245749e-05 0)
(0.00174417497193 -8.4029939217e-05 0)
(0.00177288798246 -7.10728466071e-05 0)
(0.00179658256409 -5.68656702645e-05 0)
(0.00181485619497 -4.16556119545e-05 0)
(0.00182740075708 -2.57335944495e-05 0)
(0.00183401629945 -9.42279061045e-06 0)
(0.00183461963959 6.94010623937e-06 0)
(0.00182924556154 2.30271836054e-05 0)
(0.00181804028064 3.85398319191e-05 0)
(0.00180124861588 5.32234521191e-05 0)
(0.00177919745444 6.68737903777e-05 0)
(0.00175227862895 7.93347757073e-05 0)
(0.00172093376278 9.04909418838e-05 0)
(0.00168564205072 0.000100258843803 0)
(0.00164691051148 0.000108580478125 0)
(0.00160526570898 0.000115419779124 0)
(0.00156124593094 0.000120762226763 0)
(0.00151539293032 0.000124616928786 0)
(0.00146824264672 0.000127019774501 0)
(0.00142031489668 0.000128035839665 0)
(0.00137210263353 0.000127759527434 0)
(0.00132406175368 0.000126311763359 0)
(0.00127660246331 0.000123834465374 0)
(0.00123008298399 0.000120483156193 0)
(0.00118480600003 0.000116418864573 0)
(0.00114101785908 0.000111800411987 0)
(0.00109891021836 0.0001067779101 0)
(0.00105862362811 0.000101487931418 0)
(0.00102025246356 9.60504688837e-05 0)
(0.000983850635562 9.05675385852e-05 0)
(0.000949437591111 8.5123124929e-05 0)
(0.000917004225068 7.97841098785e-05 0)
(0.000886518437412 7.46018393787e-05 0)
(0.000857930171027 6.96140322162e-05 0)
(0.000831175845996 6.48468041721e-05 0)
(0.000806182166572 6.03166481098e-05 0)
(0.000782869318383 5.6032268825e-05 0)
(0.000761153599421 5.19962175668e-05 0)
(0.000740949542568 4.82063041845e-05 0)
(0.000722171593289 4.46567874359e-05 0)
(0.000704735406213 4.13393575355e-05 0)
(0.000688558820952 3.82439326915e-05 0)
(0.000673562571985 3.53592942587e-05 0)
(0.000659670781052 3.26735856598e-05 0)
(0.000646811273786 3.01746986528e-05 0)
(0.000634915755883 2.78505685254e-05 0)
(0.000623919878048 2.56893970524e-05 0)
(0.000613763213577 2.36798197342e-05 0)
(0.000604389167587 2.18110313143e-05 0)
(0.000595744832766 2.00728817812e-05 0)
(0.000587780802883 1.84559532096e-05 0)
(0.000580450952269 1.69516267251e-05 0)
(0.000573712186895 1.55521477236e-05 0)
(0.000567524170636 1.4250697026e-05 0)
(0.000561849028778 1.30414749758e-05 0)
(0.000556651029922 1.19198052784e-05 0)
(0.00055189624739 1.08822645436e-05 0)
(0.000547552202357 9.92684240061e-06 0)
(0.000543587493825 9.05313404362e-06 0)
(0.000539971426101 8.26256142553e-06 0)
(0.000536673653827 7.55860735333e-06 0)
(0.000533663879798 6.9470237859e-06 0)
(0.000530911663524 6.43593023558e-06 0)
(0.000528386430476 6.03562991902e-06 0)
(0.000526057810003 5.75779622825e-06 0)
(0.000523896454374 5.61333232576e-06 0)
(0.000521875418037 5.60750356282e-06 0)
(0.00051997170114 5.72961289276e-06 0)
(0.000518165726859 5.93271594086e-06 0)
(0.000516432356842 6.10114498624e-06 0)
(0.00121288037193 0.000152561820502 0)
(0.00124188573609 0.000326358554021 0)
(0.00126619584767 0.000396594773979 0)
(0.00127286420329 0.000405156594168 0)
(0.00126213827959 0.000383274884538 0)
(0.00123864935099 0.000348773321281 0)
(0.00120722546146 0.000310751879598 0)
(0.0011716918493 0.000273546510387 0)
(0.00113477813228 0.000239042447206 0)
(0.00109832081552 0.00020789875868 0)
(0.00106349698558 0.000180179065786 0)
(0.00103101953746 0.000155673651889 0)
(0.0010012843654 0.000134062747196 0)
(0.000974476401466 0.000114997874389 0)
(0.000950644146793 9.81407718092e-05 0)
(0.000929751222179 8.31803863435e-05 0)
(0.000911711573674 6.98386651587e-05 0)
(0.000896413225845 5.78707995046e-05 0)
(0.000883734092183 4.70628995091e-05 0)
(0.000873552319881 3.72286551988e-05 0)
(0.00086575289966 2.82057763744e-05 0)
(0.000860231740828 1.98525959693e-05 0)
(0.000856898038801 1.20450052203e-05 0)
(0.00085567550168 4.6737773016e-06 0)
(0.000856502821261 -2.35771913262e-06 0)
(0.000859333642094 -9.13542332099e-06 0)
(0.000864136202422 -1.57361545249e-05 0)
(0.00087089276154 -2.22288959718e-05 0)
(0.000879598871596 -2.8675774076e-05 0)
(0.00089026252323 -3.51327668329e-05 0)
(0.000902903173819 -4.16501493338e-05 0)
(0.000917550647563 -4.82726758002e-05 0)
(0.000934243881123 -5.50394897444e-05 0)
(0.000953029475498 -6.19837466793e-05 0)
(0.000973960003362 -6.91319284593e-05 0)
(0.000997092010966 -7.65028251608e-05 0)
(0.00102248364503 -8.41061614374e-05 0)
(0.00105019182854 -9.19408508185e-05 0)
(0.00108026890621 -9.99928767503e-05 0)
(0.00111275868244 -0.000108232825817 0)
(0.00114769178511 -0.000116613140739 0)
(0.00118508031036 -0.000125065220805 0)
(0.00122491174253 -0.000133496577481 0)
(0.00126714220392 -0.000141788349598 0)
(0.00131168917628 -0.000149793587099 0)
(0.001358423952 -0.000157336803937 0)
(0.00140716421453 -0.000164215347963 0)
(0.0014576672999 -0.000170203094895 0)
(0.00150962482667 -0.000175056802606 0)
(0.00156265945575 -0.000178525138066 0)
(0.00161632450433 -0.000180359941379 0)
(0.00167010695202 -0.00018032882053 0)
(0.00172343404772 -0.000178227846096 0)
(0.00177568332435 -0.000173893107443 0)
(0.00182619548465 -0.000167210262578 0)
(0.00187428946212 -0.00015812180837 0)
(0.00191927901208 -0.00014663227359 0)
(0.00196049031453 -0.00013281160762 0)
(0.00199728008686 -0.000116796864803 0)
(0.00202905367461 -9.87924642403e-05 0)
(0.00205528290053 -7.90698158112e-05 0)
(0.00207552406778 -5.79662336236e-05 0)
(0.0020894362072 -3.58796590489e-05 0)
(0.00209679752969 -1.32535925509e-05 0)
(0.00209751603354 9.44904527091e-06 0)
(0.00209163106579 3.17772549535e-05 0)
(0.00207930550982 5.33205469587e-05 0)
(0.00206081051936 7.37293286758e-05 0)
(0.00203650600583 9.27235142597e-05 0)
(0.00200682090322 0.000110088896853 0)
(0.00197223652657 0.000125665974443 0)
(0.00193327394424 0.000139338012895 0)
(0.00189048431426 0.000151022384094 0)
(0.00184444075143 0.000160666144929 0)
(0.00179573052727 0.000168245771914 0)
(0.00174494652479 0.000173770299212 0)
(0.00169267719111 0.000177285938625 0)
(0.00163949497751 0.000178879561981 0)
(0.00158594407297 0.000178678901598 0)
(0.0015325286982 0.000176848578809 0)
(0.00147970322212 0.000173582357595 0)
(0.00142786502285 0.000169092889883 0)
(0.00137735052982 0.000163600561005 0)
(0.00132843440738 0.000157322937518 0)
(0.00128133147344 0.000150465922785 0)
(0.00123620073256 0.000143217217896 0)
(0.00119315083738 0.000135742214088 0)
(0.00115224633748 0.000128182096591 0)
(0.0011135141846 0.000120653742384 0)
(0.00107695009639 0.000113250927095 0)
(0.0010425245095 0.000106046378944 0)
(0.00101018796143 9.90942907419e-05 0)
(0.000979875824886 9.24329918939e-05 0)
(0.000951512378588 8.60875715188e-05 0)
(0.000925014238447 8.00723196422e-05 0)