/*--------------------------------*- C++ -*----------------------------------*\
  =========                 |
  \\      /  F ield         | OpenFOAM: The Open Source CFD Toolbox
   \\    /   O peration     | Website:  https://openfoam.org
    \\  /    A nd           | Version:  7
     \\/     M anipulation  |
\*---------------------------------------------------------------------------*/
FoamFile
{
    version     2.0;
    format      ascii;
    class       volScalarField;
    location    "3060";
    object      Ci;
}
// * * * * * * * * * * * * * * * * * * * * * * * * * * * * * * * * * * * * * //

dimensions      [0 -3 0 0 1 0 0];

internalField   nonuniform List<scalar> 
8192
(
9.99999998477
10.0000000532
10.000000155
10.000000291
10.0000004684
10.0000006809
10.0000009201
10.0000011786
10.0000014511
10.0000017331
10.0000020214
10.0000023127
10.0000026046
10.0000028944
10.0000031799
10.0000034586
10.0000037284
10.0000039867
10.0000042317
10.0000044606
10.0000046717
10.0000048625
10.0000050316
10.0000051765
10.0000052962
10.0000053882
10.0000054517
10.0000054844
10.0000054858
10.0000054539
10.0000053883
10.0000052872
10.000005151
10.0000049779
10.000004769
10.000004523
10.0000042416
10.0000039241
10.0000035728
10.0000031875
10.0000027719
10.0000023272
10.000001859
10.0000013695
10.0000008658
10.0000003515
9.99999983497
9.99999932054
9.99999881751
9.9999983303
9.99999786839
9.99999743554
9.99999704087
9.99999668713
9.99999638306
9.99999613086
9.99999593968
9.99999581221
9.99999575903
9.99999578396
9.99999589875
9.99999610688
9.9999964184
9.99999683248
9.99999735292
9.99999797081
9.9999986815
9.99999946844
10.0000003213
10.0000012204
10.0000021545
10.0000031051
10.0000040627
10.0000050115
10.0000059443
10.0000068479
10.0000077177
10.0000085431
10.0000093219
10.0000100465
10.0000107172
10.0000113292
10.0000118846
10.0000123809
10.0000128219
10.0000132067
10.0000135399
10.0000138217
10.0000140573
10.0000142472
10.0000143956
10.0000145029
10.000014574
10.0000146104
10.0000146172
10.0000145958
10.0000145512
10.0000144844
10.0000144
10.0000142989
10.0000141852
10.0000140598
10.0000139263
10.0000137853
10.0000136401
10.000013491
10.0000133411
10.0000131903
10.0000130414
10.0000128939
10.0000127503
10.0000126099
10.0000124747
10.0000123437
10.0000122184
10.0000120976
10.0000119823
10.0000118707
10.0000117633
10.0000116576
10.0000115534
10.0000114476
10.00001134
10.0000112285
10.0000111155
10.0000110048
10.0000109068
10.000010841
10.0000000055
10.0000000921
10.0000001903
10.0000003095
10.0000004587
10.0000006382
10.0000008453
10.0000010754
10.0000013241
10.0000015866
10.0000018592
10.000002138
10.00000242
10.0000027023
10.0000029824
10.0000032575
10.0000035254
10.0000037836
10.00000403
10.0000042616
10.0000044769
10.0000046734
10.0000048497
10.0000050034
10.0000051334
10.0000052373
10.0000053144
10.0000053624
10.0000053807
10.0000053675
10.0000053224
10.0000052437
10.0000051315
10.0000049846
10.0000048035
10.0000045874
10.0000043376
10.0000040538
10.0000037376
10.0000033887
10.0000030106
10.0000026049
10.0000021764
10.0000017277
10.000001265
10.000000792
10.0000003161
9.9999998417
9.99999937704
9.99999892656
9.99999849862
9.99999809707
9.9999977298
9.99999739976
9.9999971143
9.99999687579
9.9999966917
9.99999656464
9.99999650302
9.99999651023
9.99999659538
9.99999676158
9.99999701644
9.99999735976
9.99999779428
9.99999831369
9.99999891428
9.99999958392
10.0000003144
10.0000010911
10.0000019047
10.000002741
10.0000035916
10.0000044437
10.0000052904
10.0000061205
10.0000069284
10.000007705
10.0000084464
10.0000091456
10.0000098009
10.0000104074
10.0000109652
10.0000114715
10.0000119282
10.0000123339
10.0000126918
10.0000130017
10.0000132675
10.0000134899
10.0000136708
10.0000138102
10.0000139134
10.0000139822
10.000014021
10.0000140315
10.0000140179
10.0000139817
10.0000139269
10.0000138547
10.0000137687
10.00001367
10.0000135619
10.0000134454
10.0000133232
10.0000131962
10.000013067
10.0000129359
10.0000128052
10.0000126751
10.0000125474
10.0000124221
10.0000123008
10.0000121828
10.0000120695
10.00001196
10.0000118552
10.0000117536
10.0000116555
10.0000115588
10.0000114632
10.000011366
10.0000112666
10.0000111627
10.0000110555
10.0000109496
10.0000108552
10.0000107833
10.0000000069
10.0000001025
10.0000001984
10.0000003018
10.0000004228
10.0000005642
10.0000007266
10.0000009093
10.0000011108
10.0000013285
10.0000015599
10.0000018018
10.0000020516
10.000002306
10.0000025626
10.0000028183
10.000003071
10.0000033178
10.0000035569
10.0000037854
10.0000040017
10.0000042031
10.0000043884
10.000004555
10.0000047019
10.0000048268
10.000004929
10.0000050062
10.000005058
10.0000050824
10.0000050794
10.000005047
10.0000049859
10.0000048942
10.000004773
10.0000046211
10.0000044402
10.0000042293
10.000003991
10.0000037249
10.0000034344
10.0000031199
10.0000027864
10.0000024351
10.0000020721
10.0000016996
10.0000013248
10.00000095
10.0000005834
10.0000002269
9.99999988869
9.99999956996
9.99999927803
9.99999901297
9.99999878131
9.99999858205
9.99999842153
9.99999829855
9.99999822019
9.99999818597
9.99999820408
9.99999827454
9.99999840556
9.99999859588
9.99999885131
9.9999991672
9.99999954535
9.99999997738
10.0000004619
10.0000009885
10.0000015545
10.0000021493
10.0000027701
10.0000034064
10.0000040553
10.0000047066
10.0000053574
10.0000059981
10.0000066262
10.0000072333
10.0000078175
10.0000083722
10.0000088966
10.0000093857
10.0000098401
10.0000102564
10.0000106363
10.0000109778
10.0000112837
10.0000115528
10.0000117882
10.0000119887
10.000012158
10.0000122958
10.0000124061
10.0000124893
10.000012549
10.0000125859
10.0000126037
10.0000126029
10.0000125869
10.0000125564
10.0000125146
10.0000124619
10.0000124014
10.0000123332
10.0000122604
10.0000121827
10.0000121029
10.0000120207
10.0000119385
10.0000118557
10.0000117745
10.000011694
10.0000116159
10.0000115393
10.0000114655
10.0000113929
10.0000113226
10.0000112524
10.0000111827
10.0000111107
10.0000110363
10.0000109571
10.0000108727
10.0000107861
10.0000107069
10.0000106327
10.0000000057
10.0000001088
10.0000002053
10.0000003039
10.0000004127
10.0000005337
10.0000006683
10.0000008169
10.0000009793
10.000001155
10.000001343
10.0000015415
10.0000017491
10.0000019636
10.0000021829
10.0000024048
10.0000026272
10.0000028478
10.0000030645
10.0000032752
10.0000034779
10.0000036707
10.0000038518
10.0000040193
10.0000041719
10.0000043078
10.0000044258
10.0000045243
10.0000046027
10.0000046593
10.0000046939
10.0000047051
10.000004693
10.0000046566
10.0000045963
10.0000045115
10.0000044033
10.0000042714
10.0000041175
10.0000039421
10.0000037473
10.0000035343
10.0000033062
10.0000030648
10.0000028141
10.0000025565
10.0000022965
10.0000020368
10.0000017821
10.0000015348
10.0000012993
10.0000010771
10.0000008716
10.0000006833
10.0000005146
10.0000003651
10.0000002369
10.0000001298
10.0000000464
9.99999998773
9.99999995776
9.99999995845
9.99999999454
10.0000000677
10.0000001812
10.0000003345
10.0000005284
10.0000007596
10.0000010267
10.0000013255
10.0000016544
10.000002009
10.000002388
10.0000027871
10.0000032044
10.0000036355
10.000004078
10.0000045267
10.0000049791
10.00000543
10.0000058767
10.0000063144
10.000006741
10.0000071521
10.0000075465
10.0000079208
10.0000082743
10.0000086051
10.0000089131
10.0000091971
10.000009458
10.000009695
10.0000099092
10.0000101004
10.0000102702
10.0000104188
10.0000105479
10.0000106579
10.0000107509
10.0000108275
10.0000108895
10.0000109376
10.0000109739
10.0000109989
10.0000110145
10.0000110214
10.0000110213
10.0000110146
10.0000110031
10.0000109869
10.0000109676
10.0000109453
10.0000109213
10.0000108955
10.0000108689
10.0000108413
10.0000108135
10.0000107848
10.0000107557
10.0000107251
10.0000106929
10.0000106574
10.0000106181
10.0000105733
10.0000105235
10.0000104686
10.0000104224
10.0000103544
10.0000000082
10.0000001193
10.0000002226
10.000000322
10.0000004264
10.0000005377
10.0000006571
10.0000007854
10.000000923
10.0000010698
10.0000012254
10.0000013893
10.0000015605
10.0000017379
10.0000019202
10.000002106
10.0000022936
10.0000024813
10.0000026677
10.0000028509
10.0000030295
10.0000032016
10.000003366
10.0000035209
10.0000036652
10.0000037974
10.0000039165
10.0000040211
10.0000041106
10.0000041838
10.0000042402
10.0000042789
10.0000042999
10.0000043025
10.000004287
10.0000042529
10.0000042011
10.0000041315
10.0000040454
10.0000039432
10.0000038266
10.0000036966
10.0000035555
10.0000034044
10.0000032464
10.0000030829
10.0000029171
10.0000027507
10.0000025867
10.0000024264
10.0000022725
10.0000021254
10.0000019872
10.0000018573
10.0000017372
10.0000016259
10.0000015247
10.0000014332
10.0000013536
10.0000012867
10.0000012362
10.0000012041
10.0000011947
10.0000012098
10.0000012523
10.0000013218
10.0000014187
10.0000015401
10.0000016847
10.0000018491
10.0000020323
10.0000022316
10.0000024468
10.0000026758
10.0000029186
10.0000031732
10.0000034392
10.0000037144
10.000003998
10.0000042875
10.0000045819
10.0000048784
10.0000051757
10.0000054712
10.0000057636
10.0000060505
10.0000063309
10.0000066027
10.0000068655
10.0000071175
10.0000073587
10.0000075879
10.0000078052
10.0000080099
10.0000082022
10.0000083817
10.000008549
10.0000087037
10.0000088468
10.000008978
10.0000090984
10.000009208
10.0000093078
10.0000093981
10.0000094798
10.0000095532
10.0000096193
10.0000096784
10.0000097314
10.0000097786
10.0000098209
10.0000098584
10.0000098918
10.0000099213
10.0000099476
10.0000099705
10.0000099905
10.0000100074
10.0000100215
10.0000100321
10.0000100392
10.0000100414
10.0000100385
10.0000100286
10.0000100134
10.0000099898
10.0000099807
10.0000099288
10.0000000086
10.0000001262
10.0000002341
10.000000338
10.0000004442
10.0000005535
10.0000006668
10.0000007847
10.0000009082
10.0000010374
10.0000011724
10.0000013128
10.0000014583
10.0000016082
10.0000017618
10.0000019181
10.0000020762
10.0000022347
10.0000023927
10.0000025487
10.0000027019
10.0000028507
10.0000029942
10.0000031312
10.0000032606
10.0000033814
10.0000034927
10.0000035936
10.0000036834
10.0000037614
10.0000038269
10.0000038796
10.0000039191
10.0000039451
10.0000039576
10.0000039566
10.0000039422
10.0000039148
10.0000038748
10.0000038228
10.0000037597
10.0000036862
10.0000036035
10.0000035127
10.0000034153
10.0000033124
10.0000032058
10.0000030965
10.0000029864
10.0000028763
10.0000027676
10.0000026609
10.0000025572
10.0000024565
10.0000023595
10.0000022661
10.0000021772
10.0000020935
10.0000020167
10.0000019489
10.0000018932
10.0000018529
10.0000018315
10.0000018316
10.0000018551
10.0000019019
10.0000019705
10.0000020579
10.0000021611
10.0000022765
10.0000024018
10.0000025347
10.0000026743
10.0000028193
10.0000029695
10.000003124
10.0000032832
10.0000034463
10.0000036138
10.000003785
10.0000039602
10.000004139
10.0000043213
10.0000045065
10.0000046944
10.000004884
10.0000050752
10.0000052668
10.0000054586
10.0000056496
10.0000058393
10.000006027
10.0000062122
10.0000063941
10.0000065725
10.0000067465
10.000006916
10.0000070803
10.0000072393
10.0000073925
10.0000075399
10.0000076811
10.0000078163
10.0000079451
10.0000080679
10.0000081844
10.000008295
10.0000083996
10.0000084985
10.0000085916
10.0000086795
10.0000087619
10.0000088393
10.0000089116
10.0000089792
10.000009042
10.0000091002
10.0000091537
10.0000092026
10.0000092465
10.0000092853
10.0000093182
10.000009345
10.0000093637
10.0000093773
10.0000093786
10.0000093977
10.0000093673
10.0000000104
10.000000133
10.0000002472
10.0000003551
10.0000004634
10.0000005727
10.0000006832
10.0000007957
10.0000009107
10.000001029
10.0000011508
10.000001276
10.0000014042
10.0000015353
10.0000016686
10.0000018036
10.0000019396
10.0000020758
10.0000022114
10.0000023455
10.0000024774
10.000002606
10.0000027307
10.0000028506
10.0000029649
10.000003073
10.000003174
10.0000032676
10.0000033528
10.0000034296
10.000003497
10.0000035554
10.0000036036
10.0000036425
10.0000036705
10.0000036893
10.0000036971
10.0000036959
10.0000036839
10.0000036633
10.0000036326
10.0000035938
10.0000035463
10.0000034913
10.000003429
10.0000033606
10.0000032866
10.000003208
10.0000031258
10.0000030407
10.0000029537
10.0000028655
10.000002777
10.0000026885
10.0000026009
10.0000025147
10.0000024309
10.0000023507
10.0000022762
10.0000022099
10.0000021551
10.0000021156
10.0000020951
10.0000020963
10.0000021209
10.0000021684
10.0000022368
10.0000023224
10.0000024211
10.0000025287
10.0000026422
10.0000027587
10.0000028767
10.0000029946
10.0000031116
10.0000032271
10.0000033406
10.0000034521
10.0000035617
10.00000367
10.0000037774
10.0000038848
10.0000039928
10.0000041022
10.0000042138
10.0000043279
10.0000044452
10.000004566
10.0000046904
10.0000048186
10.0000049505
10.0000050859
10.0000052245
10.0000053661
10.00000551
10.0000056558
10.0000058029
10.0000059507
10.0000060985
10.0000062458
10.0000063919
10.0000065364
10.0000066785
10.000006818
10.0000069543
10.000007087
10.0000072159
10.0000073406
10.0000074609
10.0000075765
10.0000076874
10.0000077933
10.0000078941
10.0000079898
10.0000080803
10.0000081654
10.0000082453
10.0000083197
10.0000083887
10.0000084519
10.0000085092
10.00000856
10.0000086042
10.0000086401
10.0000086706
10.0000086886
10.0000087209
10.000008713
10.0000000097
10.0000001355
10.0000002526
10.0000003648
10.0000004771
10.0000005889
10.0000007
10.0000008106
10.0000009216
10.0000010335
10.0000011474
10.0000012628
10.0000013799
10.0000014984
10.0000016182
10.0000017387
10.0000018594
10.00000198
10.0000020997
10.0000022179
10.0000023342
10.0000024479
10.0000025584
10.0000026652
10.0000027676
10.0000028655
10.0000029578
10.0000030449
10.0000031252
10.0000032
10.0000032667
10.0000033281
10.0000033799
10.000003427
10.000003463
10.0000034949
10.0000035146
10.0000035307
10.0000035341
10.0000035337
10.000003521
10.0000035036
10.0000034754
10.0000034412
10.000003398
10.0000033484
10.0000032914
10.0000032284
10.0000031599
10.0000030866
10.0000030096
10.0000029295
10.0000028474
10.000002764
10.0000026801
10.0000025966
10.0000025146
10.0000024358
10.0000023622
10.000002297
10.0000022437
10.0000022068
10.0000021902
10.0000021977
10.0000022303
10.0000022878
10.0000023669
10.0000024633
10.0000025715
10.000002687
10.0000028058
10.0000029251
10.000003043
10.0000031577
10.0000032684
10.0000033738
10.0000034735
10.000003567
10.0000036546
10.0000037362
10.000003813
10.0000038855
10.0000039551
10.0000040227
10.0000040897
10.0000041572
10.0000042264
10.0000042982
10.0000043738
10.0000044536
10.0000045384
10.0000046285
10.0000047243
10.0000048254
10.0000049321
10.0000050437
10.00000516
10.0000052803
10.0000054041
10.0000055307
10.0000056595
10.0000057895
10.0000059203
10.000006051
10.000006181
10.0000063097
10.0000064364
10.0000065606
10.0000066819
10.0000067997
10.0000069137
10.0000070234
10.0000071287
10.0000072292
10.0000073246
10.0000074149
10.0000074998
10.0000075792
10.0000076529
10.0000077208
10.0000077826
10.0000078381
10.0000078865
10.0000079277
10.000007962
10.0000079876
10.0000080184
10.0000080288
10.0000000111
10.0000001401
10.0000002616
10.0000003767
10.0000004913
10.0000006047
10.0000007165
10.0000008266
10.0000009354
10.0000010436
10.0000011521
10.0000012612
10.0000013708
10.0000014809
10.0000015913
10.0000017018
10.000001812
10.0000019216
10.0000020301
10.0000021373
10.0000022425
10.0000023456
10.0000024458
10.0000025435
10.0000026371
10.000002728
10.0000028134
10.0000028965
10.0000029721
10.0000030467
10.000003111
10.0000031765
10.0000032279
10.000003284
10.0000033212
10.0000033672
10.0000033893
10.0000034238
10.0000034309
10.0000034516
10.0000034444
10.0000034483
10.0000034281
10.0000034131
10.0000033802
10.0000033463
10.0000033005
10.00000325
10.0000031919
10.0000031284
10.0000030599
10.0000029875
10.000002912
10.0000028343
10.0000027552
10.0000026758
10.0000025969
10.0000025203
10.0000024481
10.0000023837
10.0000023311
10.0000022952
10.0000022806
10.0000022914
10.0000023289
10.0000023926
10.0000024786
10.0000025819
10.0000026963
10.0000028168
10.0000029394
10.0000030612
10.0000031803
10.0000032952
10.0000034048
10.0000035081
10.0000036045
10.0000036934
10.0000037745
10.0000038483
10.000003915
10.0000039754
10.0000040303
10.000004081
10.0000041286
10.0000041744
10.0000042197
10.0000042658
10.000004314
10.0000043653
10.0000044206
10.0000044808
10.0000045463
10.0000046176
10.0000046947
10.0000047778
10.0000048663
10.0000049603
10.0000050589
10.0000051618
10.0000052683
10.0000053776
10.0000054891
10.000005602
10.0000057155
10.000005829
10.0000059417
10.000006053
10.0000061623
10.0000062691
10.0000063727
10.0000064727
10.0000065688
10.0000066606
10.0000067476
10.0000068299
10.0000069069
10.0000069788
10.0000070451
10.000007106
10.0000071607
10.0000072101
10.0000072518
10.0000072887
10.0000073159
10.0000073414
10.0000073598
10.0000073818
10.0000000103
10.0000001415
10.000000265
10.0000003835
10.0000005016
10.0000006179
10.0000007316
10.0000008425
10.0000009509
10.0000010576
10.000001163
10.0000012682
10.000001373
10.0000014775
10.0000015817
10.0000016854
10.0000017884
10.0000018906
10.0000019915
10.0000020912
10.0000021888
10.0000022851
10.0000023782
10.0000024703
10.0000025577
10.0000026451
10.0000027252
10.000002808
10.0000028789
10.0000029575
10.0000030166
10.0000030922
10.0000031365
10.0000032104
10.0000032368
10.0000033099
10.0000033161
10.000003387
10.0000033736
10.000003437
10.0000034082
10.0000034554
10.0000034176
10.0000034394
10.0000033978
10.0000033896
10.0000033447
10.0000033096
10.0000032577
10.0000032036
10.0000031422
10.0000030765
10.0000030069
10.0000029343
10.0000028593
10.0000027828
10.0000027055
10.0000026292
10.000002556
10.00000249
10.0000024357
10.0000023995
10.0000023866
10.0000024025
10.0000024484
10.0000025234
10.000002622
10.000002738
10.0000028633
10.0000029923
10.0000031203
10.0000032448
10.0000033641
10.0000034772
10.0000035833
10.0000036819
10.0000037721
10.000003854
10.0000039277
10.0000039937
10.0000040527
10.0000041054
10.0000041523
10.0000041941
10.000004232
10.0000042671
10.0000043008
10.0000043341
10.0000043684
10.0000044047
10.0000044441
10.0000044874
10.0000045353
10.0000045882
10.0000046465
10.0000047103
10.0000047795
10.0000048538
10.0000049329
10.0000050164
10.0000051035
10.0000051938
10.0000052865
10.0000053809
10.0000054764
10.0000055721
10.0000056673
10.0000057615
10.000005854
10.0000059443
10.0000060316
10.0000061157
10.000006196
10.0000062723
10.000006344
10.0000064112
10.0000064734
10.0000065308
10.0000065827
10.00000663
10.0000066709
10.0000067079
10.0000067364
10.0000067633
10.0000067771
10.0000067971
10.0000067981
10.0000068246
10.0000000115
10.0000001456
10.0000002727
10.0000003935
10.0000005135
10.0000006317
10.0000007469
10.0000008587
10.0000009673
10.0000010732
10.000001177
10.0000012796
10.0000013813
10.0000014821
10.0000015819
10.000001681
10.0000017789
10.000001876
10.0000019715
10.0000020662
10.0000021583
10.0000022503
10.0000023382
10.0000024276
10.0000025097
10.0000025972
10.0000026715
10.0000027586
10.0000028215
10.0000029117
10.0000029576
10.0000030563
10.0000030773
10.0000031916
10.0000031781
10.0000033157
10.0000032591
10.0000034232
10.0000033216
10.0000035052
10.000003369
10.0000035501
10.0000034039
10.0000035496
10.0000034228
10.0000035056
10.0000034141
10.0000034296
10.0000033659
10.000003334
10.0000032783
10.000003224
10.0000031635
10.0000030993
10.0000030315
10.0000029599
10.0000028856
10.0000028098
10.0000027351
10.0000026657
10.0000026076
10.0000025681
10.0000025543
10.0000025719
10.0000026232
10.0000027059
10.0000028138
10.0000029384
10.0000030712
10.000003205
10.0000033355
10.0000034594
10.0000035762
10.0000036839
10.0000037822
10.0000038712
10.0000039511
10.0000040226
10.0000040863
10.0000041429
10.0000041934
10.0000042386
10.0000042791
10.0000043157
10.0000043492
10.0000043802
10.0000044093
10.0000044376
10.0000044663
10.0000044964
10.0000045287
10.0000045643
10.0000046037
10.0000046474
10.0000046956
10.0000047487
10.0000048064
10.0000048686
10.000004935
10.0000050051
10.0000050784
10.0000051544
10.0000052323
10.0000053116
10.0000053915
10.0000054714
10.0000055505
10.0000056284
10.0000057042
10.0000057776
10.000005848
10.000005915
10.0000059781
10.0000060372
10.0000060917
10.0000061418
10.000006187
10.0000062276
10.0000062629
10.0000062941
10.0000063189
10.0000063413
10.0000063544
10.0000063689
10.0000063676
10.0000063792
10.000006363
10.000006388
10.0000000109
10.000000147
10.000000276
10.0000003998
10.0000005227
10.0000006436
10.0000007611
10.0000008747
10.0000009844
10.0000010907
10.0000011941
10.0000012956
10.0000013955
10.000001494
10.0000015911
10.0000016872
10.0000017818
10.0000018757
10.0000019674
10.0000020592
10.0000021474
10.0000022376
10.0000023212
10.0000024109
10.0000024878
10.0000025795
10.0000026458
10.0000027444
10.0000027927
10.0000029073
10.0000029248
10.0000030705
10.0000030371
10.0000032367
10.0000031243
10.0000034066
10.0000031834
10.000003575
10.0000032182
10.0000037254
10.0000032433
10.0000038291
10.0000032809
10.0000038547
10.0000033457
10.0000037916
10.0000034226
10.0000036681
10.0000034678
10.0000035353
10.0000034457
10.0000034194
10.0000033622
10.0000033059
10.000003243
10.0000031735
10.0000030977
10.0000030167
10.0000029334
10.0000028538
10.0000027855
10.000002739
10.0000027229
10.0000027458
10.0000028092
10.0000029104
10.0000030395
10.0000031855
10.0000033365
10.0000034845
10.0000036239
10.0000037526
10.000003868
10.0000039699
10.0000040585
10.0000041346
10.0000041994
10.0000042542
10.0000043009
10.0000043407
10.0000043755
10.0000044063
10.0000044342
10.0000044599
10.0000044842
10.0000045075
10.0000045306
10.0000045539
10.0000045781
10.0000046037
10.0000046319
10.0000046631
10.0000046981
10.0000047371
10.0000047804
10.000004828
10.0000048798
10.0000049355
10.0000049949
10.0000050573
10.0000051222
10.0000051891
10.0000052573
10.0000053262
10.000005395
10.0000054631
10.0000055299
10.0000055947
10.0000056571
10.0000057165
10.0000057724
10.0000058245
10.0000058725
10.0000059162
10.0000059552
10.0000059896
10.0000060191
10.0000060442
10.000006064
10.0000060803
10.0000060902
10.0000060986
10.0000060976
10.0000061002
10.0000060855
10.000006088
10.0000060579
10.0000060777
10.0000000119
10.0000001507
10.0000002829
10.0000004086
10.0000005333
10.000000656
10.0000007753
10.0000008906
10.0000010016
10.0000011087
10.0000012125
10.0000013136
10.0000014127
10.00000151
10.0000016053
10.0000016997
10.0000017919
10.0000018839
10.0000019728
10.0000020632
10.0000021481
10.0000022383
10.0000023177
10.0000024102
10.0000024807
10.0000025808
10.0000026352
10.000002753
10.0000027772
10.0000029317
10.0000028996
10.0000031245
10.0000029915
10.0000033421
10.0000030386
10.0000035959
10.0000030273
10.0000038898
10.0000029557
10.0000042058
10.0000028508
10.0000044867
10.0000027798
10.0000046376
10.0000028311
10.0000045716
10.0000030462
10.0000042984
10.0000033451
10.0000039593
10.0000035603
10.0000037125
10.0000035987
10.000003572
10.0000035123
10.0000034449
10.0000033677
10.0000032803
10.0000031856
10.0000030909
10.0000030081
10.0000029492
10.0000029266
10.0000029504
10.0000030238
10.0000031406
10.0000032887
10.000003453
10.000003621
10.0000037822
10.000003932
10.0000040653
10.0000041807
10.0000042777
10.0000043571
10.0000044204
10.0000044698
10.0000045076
10.0000045365
10.000004559
10.0000045772
10.0000045928
10.0000046071
10.000004621
10.0000046351
10.0000046501
10.0000046662
10.000004684
10.0000047038
10.0000047259
10.0000047508
10.0000047791
10.0000048113
10.0000048476
10.0000048881
10.0000049328
10.0000049814
10.0000050336
10.000005089
10.000005147
10.000005207
10.0000052683
10.0000053302
10.000005392
10.0000054532
10.0000055129
10.0000055706
10.0000056258
10.0000056778
10.0000057262
10.0000057707
10.000005811
10.0000058467
10.0000058777
10.0000059038
10.0000059252
10.0000059417
10.0000059538
10.0000059607
10.0000059643
10.0000059619
10.0000059586
10.0000059461
10.0000059382
10.0000059132
10.0000059072
10.0000058675
10.0000058804
10.0000000115
10.0000001523
10.0000002864
10.0000004146
10.0000005418
10.0000006668
10.0000007884
10.0000009058
10.0000010186
10.0000011273
10.0000012321
10.0000013339
10.000001433
10.0000015301
10.0000016247
10.0000017183
10.0000018091
10.0000019004
10.0000019874
10.0000020778
10.0000021602
10.0000022518
10.0000023275
10.0000024248
10.0000024885
10.0000026
10.0000026406
10.0000027829
10.0000027773
10.0000029826
10.0000028863
10.0000032151
10.0000029463
10.0000035062
10.000002924
10.0000038915
10.0000027762
10.0000044095
10.0000024652
10.0000050738
10.0000019979
10.000005822
10.0000014852
10.0000064592
10.0000011773
10.0000066752
10.000001372
10.0000062379
10.00000214
10.0000052954
10.0000031015
10.0000043913
10.0000036964
10.0000039212
10.0000037888
10.0000037275
10.000003642
10.0000035342
10.0000034125
10.0000032918
10.0000031831
10.0000030993
10.0000030634
10.0000030957
10.0000031941
10.0000033437
10.0000035235
10.0000037185
10.0000039156
10.0000041061
10.000004281
10.0000044338
10.0000045607
10.0000046605
10.0000047344
10.0000047851
10.0000048166
10.0000048326
10.0000048378
10.000004836
10.0000048308
10.0000048244
10.0000048189
10.0000048151
10.0000048139
10.0000048156
10.0000048208
10.0000048296
10.0000048421
10.0000048585
10.0000048788
10.0000049032
10.0000049322
10.0000049658
10.000005004
10.0000050467
10.0000050934
10.0000051436
10.0000051969
10.0000052524
10.0000053096
10.0000053677
10.0000054258
10.0000054833
10.0000055395
10.0000055936
10.0000056451
10.0000056932
10.0000057378
10.0000057781
10.0000058141
10.0000058451
10.0000058715
10.0000058926
10.0000059089
10.00000592
10.0000059265
10.0000059281
10.0000059253
10.0000059185
10.000005907
10.0000058938
10.0000058731
10.0000058562
10.0000058242
10.0000058099
10.0000057643
10.0000057688
10.0000000124
10.0000001556
10.0000002923
10.0000004223
10.0000005509
10.0000006776
10.0000008009
10.0000009202
10.0000010349
10.0000011453
10.0000012515
10.0000013545
10.0000014541
10.0000015516
10.000001646
10.0000017397
10.0000018297
10.000001921
10.0000020067
10.0000020976
10.0000021782
10.0000022717
10.0000023445
10.0000024464
10.000002505
10.0000026264
10.0000026563
10.0000028193
10.00000279
10.0000030386
10.0000028885
10.0000033094
10.0000029178
10.0000036766
10.0000028176
10.0000042151
10.0000024921
10.0000050338
10.0000018135
10.0000062551
10.000000669
10.0000079308
9.99999908851
10.0000098674
9.99999745287
10.0000114352
9.9999966005
10.0000116544
9.99999744693
10.0000099302
9.99999997192
10.0000070661
10.0000026474
10.0000048934
10.0000039025
10.0000040993
10.0000039624
10.0000038086
10.0000036631
10.0000035256
10.0000033609
10.0000032092
10.000003175
10.0000032579
10.0000033661
10.0000034386
10.0000034974
10.0000036032
10.0000037913
10.0000040499
10.0000043347
10.0000046
10.0000048172
10.0000049763
10.0000050811
10.0000051409
10.0000051665
10.0000051677
10.0000051531
10.0000051295
10.0000051022
10.000005075
10.0000050502
10.0000050291
10.0000050125
10.0000050011
10.0000049949
10.0000049943
10.0000049991
10.0000050095
10.0000050252
10.0000050459
10.0000050716
10.0000051027
10.0000051387
10.0000051795
10.0000052245
10.0000052732
10.0000053247
10.0000053785
10.0000054335
10.0000054891
10.0000055444
10.0000055985
10.0000056508
10.0000057005
10.000005747
10.0000057896
10.0000058282
10.0000058618
10.0000058909
10.0000059143
10.0000059333
10.0000059459
10.0000059546
10.0000059567
10.0000059557
10.0000059478
10.0000059382
10.0000059214
10.000005904
10.00000588
10.0000058548
10.0000058259
10.0000057907
10.0000057624
10.0000057142
10.0000057004
10.0000000123
10.0000001573
10.0000002959
10.0000004279
10.0000005584
10.0000006869
10.0000008121
10.0000009335
10.0000010503
10.0000011627
10.0000012708
10.0000013754
10.0000014761
10.0000015747
10.0000016696
10.0000017639
10.000001854
10.0000019458
10.0000020314
10.0000021228
10.0000022032
10.0000022979
10.0000023707
10.0000024748
10.0000025336
10.0000026586
10.0000026888
10.000002858
10.0000028279
10.0000030884
10.0000029311
10.0000033797
10.000002957
10.0000037906
10.0000028237
10.0000044324
10.0000023783
10.0000055025
10.0000013625
10.0000073104
9.99999940729
10.0000102369
9.99999615261
10.000014494
9.99999164486
10.0000195641
9.9999870302
10.000023519
9.99998494815
10.0000233223
9.99998811147
10.0000175507
9.99999565616
10.0000096904
10.0000020972
10.0000051979
10.0000040852
10.0000039964
10.0000039488
10.0000036981
10.0000032155
10.000003079
10.0000034998
10.0000036151
10.0000026023
10.0000006278
9.99999864118
9.99999756762
9.99999775616
9.99999895455
10.0000006209
10.0000022547
10.0000035656
10.0000044746
10.0000050335
10.0000053383
10.0000054792
10.0000055223
10.0000055112
10.0000054726
10.000005423
10.0000053716
10.0000053242
10.000005283
10.0000052495
10.0000052236
10.0000052052
10.0000051939
10.0000051895
10.0000051915
10.0000051997
10.000005214
10.0000052339
10.0000052594
10.0000052909
10.0000053279
10.0000053698
10.0000054159
10.0000054654
10.0000055172
10.0000055706
10.0000056243
10.0000056776
10.0000057293
10.0000057789
10.000005825
10.0000058679
10.0000059058
10.0000059398
10.0000059674
10.0000059914
10.0000060074
10.000006021
10.0000060248
10.0000060286
10.00000602
10.0000060152
10.0000059941
10.0000059821
10.0000059483
10.0000059304
10.0000058832
10.0000058593
10.0000057977
10.000005765
10.0000056894
10.0000056429
10.0000055599
10.0000000129
10.0000001602
10.0000003008
10.0000004343
10.000000566
10.0000006957
10.0000008225
10.0000009456
10.0000010643
10.0000011787
10.0000012887
10.000001395
10.0000014972
10.000001597
10.000001693
10.0000017881
10.0000018789
10.0000019712
10.0000020575
10.0000021491
10.0000022309
10.0000023252
10.0000024009
10.0000025034
10.0000025685
10.0000026886
10.0000027323
10.0000028886
10.0000028861
10.0000031166
10.0000030141
10.0000033992
10.0000030796
10.0000037919
10.0000030022
10.0000044119
10.0000026107
10.000005501
10.0000015589
10.0000075301
9.99999920393
10.0000113182
9.99999452408
10.0000180113
9.99998635343
10.0000284912
9.99997450269
10.0000416103
9.99996210807
10.0000517005
9.99995725862
10.0000493974
9.99996792227
10.0000317188
9.99998869999
10.0000125417
10.0000016525
10.0000050008
10.0000046494
10.0000029036
10.0000022172
10.0000051257
10.0000067159