/*--------------------------------*- C++ -*----------------------------------*\
  =========                 |
  \\      /  F ield         | OpenFOAM: The Open Source CFD Toolbox
   \\    /   O peration     | Website:  https://openfoam.org
    \\  /    A nd           | Version:  7
     \\/     M anipulation  |
\*---------------------------------------------------------------------------*/
FoamFile
{
    version     2.0;
    format      ascii;
    class       volScalarField;
    location    "3060";
    object      p;
}
// * * * * * * * * * * * * * * * * * * * * * * * * * * * * * * * * * * * * * //

dimensions      [0 2 -2 0 0 0 0];

internalField   nonuniform List<scalar> 
8192
(
0.000557003394869
0.000385448512732
0.000299819475564
0.000255688261504
0.00023064436603
0.000215388797667
0.000205504364683
0.000198746839315
0.000193909414181
0.000190308014185
0.000187535166892
0.00018533681565
0.000183547936261
0.000182057430234
0.000180788174133
0.000179685223188
0.000178708570802
0.000177828548091
0.000177022807142
0.000176274285647
0.000175569798049
0.000174899037738
0.000174253855506
0.000173627727815
0.000173015357776
0.000172412370446
0.000171815075748
0.000171220280309
0.000170625134443
0.000170027004175
0.000169423360507
0.000168811680513
0.000168189354998
0.000167553598576
0.000166901358609
0.000166229220197
0.000165533304472
0.000164809158218
0.000164051633018
0.000163254753235
0.000162411572841
0.000161514023031
0.000160552754324
0.00015951698024
0.000158394333029
0.000157170747224
0.000155830391898
0.000154355679069
0.000152727380769
0.000150924891817
0.000148926675173
0.000146710922259
0.00014425644711
0.000141543812273
0.000138556653048
0.000135283130519
0.000131717403788
0.000127860977703
0.000123723757918
0.000119324642445
0.000114691502799
0.000109860469179
0.000104874528513
9.97815616555e-05
9.46320519878e-05
8.9476758767e-05
8.43646367341e-05
7.93411977858e-05
7.44473809936e-05
6.97188912597e-05
6.51858916401e-05
6.08729148843e-05
5.6798885061e-05
5.29771918418e-05
4.94158101962e-05
4.61174945556e-05
4.30800870587e-05
4.02969701128e-05
3.77576675152e-05
3.54485702091e-05
3.33537379385e-05
3.14557166602e-05
2.97363114351e-05
2.8177266835e-05
2.67608234939e-05
2.54701387016e-05
2.42895739289e-05
2.32048640484e-05
2.22031884574e-05
2.12731669601e-05
2.04048015454e-05
1.95893830336e-05
1.88193773763e-05
1.8088303372e-05
1.73906097178e-05
1.6721557157e-05
1.60771088161e-05
1.54538307616e-05
1.48488031798e-05
1.42595423245e-05
1.36839324193e-05
1.31201669022e-05
1.25666978111e-05
1.20221925202e-05
1.1485496627e-05
1.09556022797e-05
1.04316208959e-05
9.91275973181e-06
9.39830145227e-06
8.88758635906e-06
8.37999665664e-06
7.87494265973e-06
7.3718506366e-06
6.87015260303e-06
6.36927835837e-06
5.86865097905e-06
5.36768749603e-06
4.86580832107e-06
4.36246113203e-06
3.85716973674e-06
3.3496261991e-06
2.83986033597e-06
2.32855105009e-06
1.81760853148e-06
1.31130108055e-06
8.18561162666e-07
3.58652788303e-07
2.76265257156e-08
0.000408094879
0.000344575765676
0.000294875818039
0.000262210262789
0.000240273312751
0.000225075958926
0.000214240398762
0.00020630232895
0.000200336843739
0.000195745733987
0.000192132996191
0.000189230433343
0.000186852366399
0.000184867549756
0.000183181414614
0.000181724615204
0.00018044548946
0.000179304995838
0.000178273246076
0.000177327086081
0.000176448377867
0.000175622758803
0.000174838731227
0.000174086984338
0.00017335988161
0.000172651067631
0.000171955161866
0.000171267516169
0.000170584019094
0.000169900934279
0.000169214763379
0.000168522126951
0.000167819657064
0.000167103896851
0.000166371203221
0.000165617649752
0.000164838927119
0.000164030239211
0.000163186193496
0.000162300685224
0.00016136677584
0.000160376567654
0.000159321078418
0.00015819012219
0.000156972205673
0.000155654453328
0.000154222578506
0.000152660922726
0.000150952588926
0.000149079697505
0.000147023793375
0.00014476642795
0.000142289928856
0.000139578352839
0.000136618592279
0.000133401576702
0.00012992347925
0.000126186811333
0.000122201270165
0.000117984202088
0.000113560563715
0.000108962311172
0.000104227223304
9.93972600778e-05
9.45166455445e-05
8.96299155541e-05
8.47801642497e-05
8.00076510052e-05
7.53488199565e-05
7.08357019191e-05
6.64956074601e-05
6.23510039429e-05
5.84194912576e-05
5.47138321901e-05
5.12420330159e-05
4.80074975534e-05
4.5009285426e-05
4.22424967272e-05
3.96987842012e-05
3.73669711806e-05
3.52337339977e-05
3.32842986615e-05
3.15031021051e-05
2.98743784248e-05
2.83826442184e-05
2.70130725563e-05
2.57517572901e-05
2.45858788614e-05
2.35037873626e-05
2.24950208102e-05
2.15502755444e-05
2.06613440714e-05
1.98210325941e-05
1.90230681053e-05
1.82620020004e-05
1.75331153684e-05
1.68323290376e-05
1.61561204689e-05
1.55014482896e-05
1.48656849012e-05
1.42465568303e-05
1.36420925114e-05
1.30505767333e-05
1.24705111973e-05
1.19005803376e-05
1.1339621855e-05
1.0786601195e-05
1.0240589533e-05
9.70074464968e-06
9.16629442527e-06
8.63652254108e-06
8.11075635515e-06
7.58835684612e-06
7.06871099633e-06
6.55122707538e-06
6.03533401316e-06
5.5204865482e-06
5.00617920147e-06
4.49197365052e-06
3.97754709689e-06
3.46277345794e-06
2.94785674292e-06
2.43354790247e-06
1.92149783688e-06
1.41483642753e-06
9.1916369958e-07
4.43859180567e-07
6.51600654159e-08
0.000325160860956
0.000302485751214
0.000276482935163
0.00025523383905
0.000239101919395
0.000226779038837
0.000217246381001
0.000209776739496
0.000203848360364
0.000199082197264
0.000195200037288
0.000191995878579
0.000189315904088
0.000187044281837
0.000185093022233
0.000183394694168
0.000181897165246
0.000180559779391
0.000179350558442
0.000178244136571
0.000177220222055
0.000176262441187
0.000175357461001
0.000174494317085
0.000173663893234
0.000172858514379
0.000172071624364
0.000171297527664
0.000170531179299
0.000169768010535
0.000169003781288
0.000168234453061
0.000167456075955
0.000166664685059
0.000165856202607
0.000165026343099
0.000164170518836
0.000163283744248
0.000162360537662
0.000161394820214
0.000160379812187
0.000159307928601
0.000158170677007
0.000156958562864
0.000155661009948
0.000154266306728
0.000152761592706
0.000151132902956
0.000149365292082
0.000147443061842
0.000145350116351
0.00014307046602
0.000140588892206
0.000137891770517
0.000134968029051
0.00013181019291
0.00012841543831
0.000124786555892
0.000120932704821
0.000116869835376
0.000112620670216
0.000108214173737
0.000103684505138
9.90695414112e-05
9.44091445301e-05
8.9743399812e-05
8.51110510536e-05
8.05482822416e-05
7.60878811429e-05
7.1758746827e-05
6.75856470824e-05
6.35891211642e-05
5.97854506099e-05
5.61866637386e-05
5.28005771961e-05
4.96309027358e-05
4.66774518601e-05
4.3936460845e-05
4.14010369385e-05
3.90617044435e-05
3.69070109385e-05
3.49241465331e-05
3.30995304488e-05
3.14193297644e-05
2.98698881297e-05
2.84380565225e-05
2.71114285824e-05
2.58784911143e-05
2.47287036934e-05
2.36525229551e-05
2.26413858089e-05
2.16876644645e-05
2.078460336e-05
1.99262462625e-05
1.91073592617e-05
1.83233540831e-05
1.75702143127e-05
1.6844426476e-05
1.61429167142e-05
1.54629936377e-05
1.48022971615e-05
1.41587532588e-05
1.35305340477e-05
1.29160229089e-05
1.231378395e-05
1.17225354847e-05
1.11411268839e-05
1.05685185396e-05
1.00037644077e-05
9.44599699919e-06
8.89441444737e-06
8.34826970806e-06
7.80686175884e-06
7.26952915454e-06
6.7356462064e-06
6.20462267885e-06
5.67590801543e-06
5.14900201882e-06
4.62347444613e-06
4.09899749e-06
3.57539653294e-06
3.05272741451e-06
2.53139203699e-06
2.01231012166e-06
1.49717075703e-06
9.8873627331e-07
4.90626542749e-07
7.54584646263e-08
0.000280630279998
0.000272228878899
0.000258021509033
0.000244214108791
0.000232771281261
0.00022348294032
0.000215896891071
0.000209645256448
0.00020445011532
0.000200098999377
0.000196426156333
0.000193300471219
0.000190617414573
0.000188293285115
0.000186260858651
0.000184465996935
0.00018286496954
0.000181422330122
0.000180109231341
0.000178902088095
0.000177781516638
0.000176731491531
0.00017573867402
0.000174791875092
0.000173881624161
0.000172999820601
0.000172139450129
0.000171294351958
0.000170459025851
0.000169628468994
0.000168798036418
0.000167963320384
0.000167120042896
0.000166263957359
0.000165390756577
0.000164495984538
0.000163574949877
0.00016262263945
0.000161633630853
0.00016060200343
0.000159521247881
0.000158384175685
0.000157182830604
0.000155908406347
0.000154551176355
0.000153100444515
0.000151544528559
0.000149870791703
0.000148065741518
0.000146115218314
0.000144004696509
0.000141719720991
0.000139246493729
0.000136572613465
0.000133687951692
0.000130585623673
0.000127262985869
0.000123722566153
0.000119972813619
0.000116028545905
0.000111910978141
0.000107647249025
0.00010326942414
9.88130538538e-05
9.43154670777e-05
8.98140453588e-05
8.53447272798e-05
8.09408981635e-05
7.66326809566e-05
7.24465692702e-05
6.84052871499e-05
6.45277550486e-05
6.08290826226e-05
5.73205605607e-05
5.40096666518e-05
5.09001258099e-05
4.79920661976e-05
4.52822990802e-05
4.27647249079e-05
4.04308425779e-05
3.82703195239e-05
3.62715729384e-05
3.442231592e-05
3.27100343917e-05
3.11223753147e-05
2.96474409817e-05
2.82739944837e-05
2.69915881638e-05
2.57906294474e-05
2.46623988695e-05
2.35990334938e-05
2.2593487006e-05
2.16394752315e-05
2.07314138852e-05
1.98643533083e-05
1.90339136556e-05
1.82362226501e-05
1.74678573444e-05
1.67257905241e-05
1.60073421258e-05
1.53101355767e-05
1.4632058936e-05
1.39712304443e-05
1.33259681834e-05
1.26947633734e-05
1.20762569879e-05
1.1469219243e-05
1.08725316932e-05
1.02851715713e-05
9.70619819641e-06
9.13474119918e-06
8.56999051537e-06
8.01118804813e-06
7.45762112897e-06
6.90861790267e-06
6.36354504722e-06
5.82180832298e-06
5.28285685348e-06
4.74619231717e-06
4.21138494785e-06
3.67809904814e-06
3.14613230892e-06
2.61547514316e-06
2.08639731839e-06
1.5595554847e-06
1.03601312433e-06
5.16576024508e-07
7.71181373263e-08
0.000253037945311
0.000251048262273
0.000243228169865
0.000234016484279
0.000225718598461
0.000218672202189
0.000212720529721
0.000207658380087
0.00020331745546
0.000199568070288
0.000196308922209
0.000193458719678
0.000190950800838
0.000188729765992
0.000186749251032
0.000184970325754
0.000183360251224
0.000181891466668
0.000180540742245
0.000179288463605
0.000178118026679
0.000177015326514
0.000175968326488
0.000174966695904
0.000174001505222
0.000173064969539
0.000172150232061
0.000171251180481
0.000170362290835
0.000169478491291
0.00016859504351
0.000167707438918
0.000166811304809
0.000165902317643
0.000164976121576
0.000164028250238
0.000163054050023
0.000162048603557
0.000161006652264
0.000159922517439
0.00015879001967
0.000157602397261
0.000156352225144
0.000155031337229
0.000153630756795
0.000152140642053
0.000150550256911
0.00014884798082
0.000147021375587
0.000145057331229
0.000142942315727
0.000140662753908
0.000138205555979
0.000135558805182
0.000132712594936
0.000129659980379
0.000126397979997
0.000122928535301
0.000119259313547
0.000115404223954
0.000111383515904
0.000107223350932
0.000102954805127
9.86123718939e-05
9.42321680602e-05
8.98501310919e-05
8.55005088904e-05
8.1214815807e-05
7.70212453089e-05
7.29444466969e-05
6.90055133427e-05
6.52220336173e-05
6.16081173591e-05
5.81743775369e-05
5.49278981997e-05
5.18722457811e-05
4.90075801188e-05
4.63309011022e-05
4.38364352646e-05
4.15161354882e-05
3.93602448872e-05
3.73578686829e-05
3.54975040184e-05
3.37674929587e-05
3.21563814137e-05
3.06531822347e-05
2.9247551165e-05
2.79298900941e-05
2.66913935643e-05
2.55240537157e-05
2.44206365141e-05
2.33746396147e-05
2.23802395753e-05
2.14322340932e-05
2.05259830903e-05
1.96573512645e-05
1.88226536411e-05
1.80186050712e-05
1.72422740404e-05
1.64910409323e-05
1.57625605806e-05
1.50547289198e-05
1.43656533737e-05
1.36936266882e-05
1.30371038121e-05
1.23946815345e-05
1.17650805188e-05
1.11471294895e-05
1.05397512727e-05
9.94195051541e-06
9.3528028591e-06
8.77144546991e-06
8.19706878952e-06
7.62890950719e-06
7.06624473558e-06
6.50838754062e-06
5.95468401452e-06
5.40451234399e-06
4.85728452978e-06
4.31245194934e-06
3.76951655382e-06
3.22805037776e-06
2.68772595847e-06
2.1483550949e-06
1.6099050491e-06
1.0723501596e-06
5.34922676664e-07
7.73948681072e-08
0.000234716756016
0.000235584087691
0.000231516389521
0.00022536070833
0.000219248560636
0.000213801571233
0.000209070088947
0.000204959023605
0.000201361594178
0.000198189148496
0.000195372182447
0.000192855786521
0.000190595449423
0.000188554160483
0.000186700560714
0.000185007761597
0.000183452551826
0.000182014822701
0.00018067711893
0.000179424266392
0.000178243052431
0.00017712194633
0.000176050853242
0.00017502089735
0.000174024230964
0.000173053866688
0.000172103529871
0.000171167528703
0.000170240640555
0.000169318008194
0.000168395047535
0.000167467365734
0.000166530684874
0.000165580770237
0.000164613361901
0.000163624108234
0.000162608499947
0.000161561803582
0.000160478993448
0.00015935468128
0.00015818304321
0.000156957744147
0.000155671860356
0.000154317802133
0.00015288723998
0.000151371039948
0.000149759216756
0.000148040917342
0.000146204452208
0.000144237397313
0.000142126793876
0.000139859476067
0.000137422554036
0.000134804069979
0.000131993825589
0.000128984351511
0.000125771956652
0.000122357763566
0.000118748609005
0.000114957667755
0.000111004645351
0.000106915396651
0.000102720891338
9.84555847755e-05
9.41554324834e-05
8.98559080826e-05
8.55904090223e-05
8.13892551607e-05
7.72792351635e-05
7.32835567682e-05
6.94219935373e-05
6.5711039161e-05
6.21639718055e-05
5.87908191259e-05
5.55982773451e-05
5.25896652703e-05
4.97649887751e-05
4.71211624252e-05
4.46523940129e-05
4.23506984787e-05
4.02064813934e-05
3.82091252198e-05
3.63475216803e-05
3.46105138451e-05
3.29872332027e-05
3.14673345286e-05
3.00411420582e-05
2.86997251985e-05
2.74349221098e-05
2.62393273435e-05
2.51062564009e-05
2.40296969365e-05
2.3004253427e-05
2.20250899907e-05
2.10878742915e-05
2.01887243604e-05
1.93241592666e-05
1.84910541041e-05
1.76865993345e-05
1.69082643838e-05
1.61537651959e-05
1.54210354511e-05
1.47082010644e-05
1.40135576455e-05
1.33355505508e-05
1.26727572432e-05
1.20238716413e-05
1.1387690226e-05
1.07630996428e-05
1.01490656227e-05
9.54462301223e-06
8.94886678918e-06
8.3609439084e-06
7.78004591137e-06
7.20540222022e-06
6.63627414707e-06
6.07194968956e-06
5.51173937126e-06
4.9549735457e-06
4.4010019045e-06
3.8491961129e-06
3.29895623995e-06
2.74971905852e-06
2.20095619001e-06
1.6521171853e-06
1.10238705476e-06
5.49994884938e-07
7.79556866363e-08
0.000221860217214
0.000223950637162
0.000222123743053
0.000218082431272
0.000213576020028
0.000209320829248
0.000205505899628
0.000202125429797
0.000199121927793
0.00019643487977
0.000194013212702
0.000191816100003
0.000189810909438
0.0001879710335
0.000186274243123
0.000184701565657
0.000183236545448
0.000181864752161
0.000180573440359
0.000179351299111
0.000178188255337
0.000177075310335
0.000176004398255
0.000174968260455
0.000173960332417
0.000172974641269
0.000172005712622
0.000171048485574
0.00017009823653
0.000169150505425
0.000168201028656
0.000167245679019
0.000166280407122
0.00016530118506
0.000164303951445
0.000163284556781
0.00016223870819
0.000161161912508
0.000160049416823
0.000158896145624
0.000157696633855
0.000156444955496
0.000155134647754
0.000153758631797
0.000152309132257
0.000150777599761
0.000149154643761
0.000147429987136
0.000145592459615
0.000143630053792
0.000141530074363
0.000139279416487
0.000136865009428
0.000134274453381
0.000131496857383
0.000128523854957
0.000125350736221
0.00012197759844
0.000118410385746
0.000114661661097
0.000110750927097
0.000106704304373
0.000102553433984
9.83336397347e-05
9.40816379185e-05
8.98332650877e-05
8.56217326882e-05
8.14766595642e-05
7.74237850594e-05
7.34851410826e-05
6.96793975328e-05
6.60221397413e-05
6.25259697347e-05
5.92004398463e-05
5.60519035024e-05
5.3083396057e-05
5.02946460401e-05
4.76822769207e-05
4.52402057596e-05
4.29601946379e-05
4.08324787456e-05
3.88463889365e-05
3.69909026793e-05
3.52550848487e-05
3.36284071918e-05
3.21009554814e-05
3.06635442641e-05
2.93077623297e-05
2.80259703355e-05
2.68112680812e-05
2.56574444985e-05
2.45589194587e-05
2.3510683364e-05
2.25082381878e-05
2.15475420382e-05
2.06249582706e-05
1.97372095096e-05
1.88813365456e-05
1.80546618418e-05
1.72547572771e-05
1.64794157015e-05
1.57266258786e-05
1.49945504057e-05
1.42815062333e-05
1.35859474379e-05
1.2906449941e-05
1.22416978963e-05
1.15904715005e-05
1.09516360097e-05
1.03241317667e-05
9.70696506502e-06
9.0991996991e-06
8.49994906261e-06
7.90836868662e-06
7.32364913187e-06
6.7450091951e-06
6.17168944191e-06
5.60294615821e-06
5.0380458799e-06
4.47626065434e-06
3.91686383253e-06
3.35912478695e-06
2.80229658017e-06
2.24557868558e-06
1.68800820549e-06
1.12818014617e-06
5.63661945885e-07
7.96260878358e-08
0.000212421630225
0.000214972786933
0.000214492220294
0.000211932628646
0.000208642085582
0.00020531465701
0.000202215237355
0.000199405805852
0.000196871833787
0.000194577627697
0.000192486737216
0.000190567859164
0.000188795468265
0.000187148889042
0.000185611152326
0.000184168040541
0.000182807385665
0.000181518579372
0.000180292236398
0.000179119960755
0.00017799417823
0.000176908010711
0.000175855176814
0.000174829909249
0.000173826883218
0.000172841152427
0.000171868090716
0.000170903338157
0.000169942751692
0.000168982355117
0.000168018292059
0.000167046784194
0.000166064088059
0.000165066452411
0.000164050075381
0.000163011060691
0.000161945372093
0.000160848785185
0.000159716835652
0.000158544762973
0.000157327448593
0.00015605934773
0.000154734414164
0.000153346018018
0.000151886857465
0.000150348867243
0.00014872312962
0.000146999798067
0.000145168050111
0.000143216094247
0.000141131265214
0.000138900250607
0.000136509495687
0.000133945827153
0.000131197315802
0.000128254361843
0.000125110941417
0.000121765909777
0.000118224222002
0.000114497898944
0.000110606522018
0.00010657700083
0.000102442396012
9.82397882061e-05
9.40075449209e-05
8.97826226064e-05
8.55985975818e-05
8.14847398085e-05
7.74659524436e-05
7.35632381267e-05
6.97942969205e-05
6.6173949013e-05
6.27142662576e-05
5.94244501989e-05
5.63105854959e-05
5.33754238161e-05
5.06183300979e-05
4.8035467756e-05
4.56202284714e-05
4.33638466137e-05
4.12560987108e-05
3.92859844275e-05
3.74423105471e-05
3.57141373662e-05
3.40910817574e-05
3.25634945517e-05
3.11225404226e-05
2.97602095723e-05
2.84692862459e-05
2.72432930986e-05
2.60764245321e-05
2.49634774287e-05
2.38997841898e-05
2.28811507055e-05
2.1903800347e-05
2.09643242413e-05
2.00596375499e-05
1.91869412766e-05
1.83436889884e-05
1.75275578627e-05
1.67364234645e-05
1.59683377461e-05
1.52215097849e-05
1.44942888655e-05
1.37851495348e-05
1.30926783359e-05
1.2415561938e-05
1.17525764431e-05
1.11025776512e-05
1.04644921149e-05
9.83730880929e-06
9.22007128289e-06
8.61187014598e-06
8.01183579135e-06
7.41913123278e-06
6.83294498526e-06
6.25248389817e-06
5.6769658585e-06
5.10561216573e-06
4.53763908932e-06
3.9722472431e-06
3.40860526852e-06
2.84581918384e-06
2.28286758747e-06
1.71846181911e-06
1.15076361468e-06
5.76903242325e-07
8.28821073667e-08
0.000205233593507
0.00020789258428
0.000208220181166
0.000206703233278
0.000204344350881
0.000201758421318
0.000199237767785
0.000196889448822
0.000194734040158
0.000192758408767
0.00019093972631
0.000189255006869
0.000187684181251
0.000186210572539
0.00018482047957
0.000183502562598
0.000182247280458
0.000181046445195
0.000179892891843
0.000178780240594
0.000177702726756
0.000176655078009
0.000175632423661
0.000174630225141
0.000173644220458
0.000172670377786
0.000171704855055
0.0001707439642
0.000169784137548
0.000168821894004
0.000167853806238
0.000166876471892
0.000165886482323
0.000164880390796
0.00016385467953
0.000162805724932
0.000161729760294
0.000160622835092
0.000159480769903
0.000158299105807
0.000157073047006
0.000155797395299
0.000154466475093
0.000153074047889
0.000151613215922
0.000150076316105
0.000148454808182
0.000146739165574
0.000144918784527
0.000142981937144
0.000140915806509
0.000138706655014
0.000136340185792
0.000133802154418
0.000131079266477
0.000128160353764
0.000125037766313
0.000121708866211
0.000118177473228
0.000114455077788
0.000110561572123
0.000106525159847
0.000102381097091
9.81691689587e-05
9.393033208e-05
8.97034121803e-05
8.5522826295e-05
8.14177265215e-05
7.74122621016e-05
7.35264439194e-05
6.97770651759e-05
6.61782929686e-05
6.2741815159e-05
5.94766265218e-05
5.63886442253e-05
5.34803622528e-05
5.07507159554e-05
4.819525334e-05
4.58066162044e-05
4.35752479941e-05
4.14901957021e-05
3.95398731727e-05
3.77126917245e-05
3.59975163667e-05
3.43839504791e-05
3.28624784879e-05
3.1424505464e-05
3.00623303311e-05
2.87690817825e-05
2.75386373183e-05
2.63655383706e-05
2.5244908903e-05
2.41723811718e-05
2.31440300036e-05
2.21563156734e-05
2.12060347632e-05
2.0290278134e-05
1.94063950379e-05
1.85519624725e-05
1.77247589366e-05
1.69227418833e-05
1.61440282431e-05
1.5386877512e-05
1.46496769566e-05
1.39309285842e-05
1.32292375575e-05
1.25433018094e-05
1.18719026214e-05
1.1213895989e-05
1.05682045934e-05
9.93381024127e-06
9.30974662488e-06
8.69509228552e-06
8.08896364484e-06
7.49050798734e-06
6.89889623943e-06
6.31331536415e-06
5.73296006025e-06
5.15702322195e-06
4.58468403951e-06
4.0150914413e-06
3.44733804681e-06
2.88041479228e-06
2.31312717571e-06
1.74394044502e-06
1.17071130106e-06
5.90289119647e-07
8.80382312625e-08
0.000199598015328
0.000202205998862
0.00020301491622
0.000202232396112
0.000200589652768
0.000198603584724
0.000196562090777
0.000194597213441
0.000192755536391
0.000191043256916
0.000189450258985
0.000187961553547
0.000186562134598
0.00018523870039
0.000183980002878
0.000182776666143
0.000181620849808
0.00018050591143
0.000179426120728
0.000178376435375
0.000177352331741
0.000176349679385
0.000175364648306
0.000174393639835
0.000173433234075
0.000172480148735
0.000171531205579
0.000170583303405
0.000169633391883
0.000168678446863
0.000167715446755
0.00016674135172
0.000165753080617
0.000164747486984
0.000163721333424
0.000162671263813
0.000161593772531
0.000160485169884
0.000159341542603
0.000158158708134
0.000156932161134
0.000155657010336
0.000154327903699
0.000152938939741
0.000151483563233
0.000149954444558
0.00014834334438
0.000146640969876
0.000144836836454
0.000142919160719
0.000140874826522
0.000138689484346
0.000136347859683
0.000133834348628
0.000131133957169
0.000128233589015
0.000125123615988
0.000121799602538
0.000118264022355
0.000114527778667
0.000110611255293
0.000106544455757
0.000102365685833
9.81185187932e-05
9.38475639164e-05
8.95943112079e-05
8.5394441195e-05
8.12771000565e-05
7.72656318654e-05
7.33789866154e-05
6.96330525163e-05
6.60414388621e-05
6.261561041e-05
5.93645291191e-05
5.62940770015e-05
5.34065384858e-05
5.07003613337e-05
4.81703172605e-05
4.58080604717e-05
4.36029676988e-05
4.15430804792e-05
3.96159779198e-05
3.78094668911e-05
3.61120492576e-05
3.45131823992e-05
3.30033790266e-05
3.15741987891e-05
3.02181771052e-05
2.89287245e-05
2.77000179735e-05
2.65268966485e-05
2.54047676731e-05
2.43295244387e-05
2.32974770612e-05
2.23052940071e-05
2.13499533834e-05
2.04287023447e-05
1.95390232226e-05
1.86786051437e-05
1.7845320123e-05
1.7037202782e-05
1.62524330118e-05
1.54893210189e-05
1.47462943088e-05
1.40218862354e-05
1.3314725822e-05
1.26235286013e-05
1.19470882727e-05
1.12842689966e-05
1.06339981752e-05
9.99525957999e-06
9.36708669954e-06
8.74855617729e-06
8.13878120644e-06
7.5369047212e-06
6.9420921759e-06
6.35352360237e-06
5.77038444157e-06
5.19185427003e-06
4.61709181719e-06
4.04521329818e-06
3.47525854148e-06
2.90613493798e-06
2.33652232228e-06
1.76471402306e-06
1.18836860787e-06
6.04172589242e-07
9.53050896115e-08
0.000195079027131
0.000197569359458
0.000198659358755
0.000198394068566
0.000197301599919
0.000195802685679
0.000194162754111
0.000192523313009
0.000190948115853
0.000189458690312
0.000188056172943
0.000186733168601
0.000185479631459
0.000184285512467
0.000183141778029
0.000182040663041
0.000180975597354
0.000179941017943
0.000178932162879
0.000177944885945
0.00017697550373
0.000176020675138
0.000175077308789
0.000174142492646
0.000173213440541
0.000172287451137
0.000171361875675
0.00017043409408
0.000169501491516
0.000168561437316
0.000167611266915
0.000166648265142
0.000165669648195
0.000164672544633
0.000163653974789
0.000162610827927
0.000161539836369
0.00016043754564
0.000159300279481
0.000158124098229
0.000156904748703
0.00015563760326
0.000154317585207
0.000152939077313
0.000151495810043
0.000149980726617
0.00014838582389
0.000146701972265
0.000144918725949
0.000143024148381
0.000141004697669
0.000138845242066
0.000136529299958
0.000134039609739
0.000131359114524
0.000128472383369
0.000125367397139
0.000122037547292
0.000118483670134
0.000114715939514
0.0001107553469
0.000106634210531
0.000102394868872
9.80859933681e-05
9.37571266345e-05
8.9453316304e-05
8.52118841983e-05
8.10619480844e-05
7.70258460806e-05
7.31212876569e-05
6.936320613e-05
6.57647490577e-05
6.23373525283e-05
5.90901641486e-05
5.60292014236e-05
5.31566079442e-05
5.04702830717e-05
4.79640370582e-05
4.56282623559e-05
4.34509570596e-05
4.14188556672e-05
3.95184428787e-05
3.77367153705e-05
3.60616571455e-05
3.44824654542e-05
3.29895957177e-05
3.15746949776e-05
3.02304791297e-05
2.89505912918e-05
2.77294631796e-05
2.65621903288e-05
2.54444250664e-05
2.43722873159e-05
2.33422914739e-05
2.23512869638e-05
2.13964100151e-05
2.04750444859e-05
1.9584789866e-05
1.87234349646e-05
1.78889360716e-05
1.70793986557e-05
1.62930618514e-05
1.55282851607e-05
1.47835369098e-05
1.4057384106e-05
1.33484834029e-05
1.26555729492e-05
1.19774649247e-05
1.13130386099e-05
1.06612338442e-05
1.00210447531e-05
9.39151361433e-06
8.77172474112e-06
8.16079822693e-06
7.55788336412e-06
6.96215145829e-06
6.37278762592e-06
5.78898089277e-06
5.20991146156e-06
4.63473319383e-06
4.06254794968e-06
3.49236604908e-06
2.92304343967e-06
2.35318127204e-06
1.78096959063e-06
1.20396000033e-06
6.18772830697e-07
1.04811957406e-07
0.000191393306275
0.000193742775297
0.000194990081073
0.000195088530784
0.000194418240048
0.000193314872739
0.000192013114136
0.000190653182516
0.000189308434693
0.000188011576465
0.000186773094045
0.000185592473617
0.00018446443703
0.000183382158643
0.000182338789889
0.000181328088454
0.000180344600318
0.000179383635545
0.000178441161977
0.00017751367767
0.000176598089571
0.000175691608931
0.000174791665726
0.000173895840654
0.000173001811948
0.000172107313985
0.00017121010482
0.000170307942595
0.000169398563245
0.000168479659431
0.000167548865652
0.000166603743138
0.000165641764458
0.000164660297387
0.000163656587388
0.000162627738016
0.000161570688415
0.000160482186929
0.000159358759571
0.00015819667171
0.000156991880841
0.000155739977649
0.000154436111814
0.000153074898162
0.000151650298073
0.000150155470845
0.000148582590785
0.000146922629389
0.000145165109966
0.000143297857077
0.000141306787242
0.00013917582083
0.000136887031672
0.000134421174752
0.000131758716481
0.000128881413922
0.000125774361077
0.000122428311211
0.000118842072962
0.000115024838192
0.000110998228187
0.000106797393196
0.000102469871899
9.80710894781e-05
9.36571416604e-05
8.92776845953e-05
8.49720080785e-05
8.07690103416e-05
7.66896443525e-05
7.27500809061e-05
6.89642080809e-05
6.53448308225e-05
6.19036080459e-05
5.86501534954e-05
5.55908377793e-05
5.27277514244e-05
5.00581692344e-05
4.75747084846e-05
4.52661623191e-05
4.31187760962e-05
4.11176288322e-05
3.92478251831e-05
3.74953387707e-05
3.58474869844e-05
3.42931056974e-05
3.28225226601e-05
3.14274198227e-05
3.01006504997e-05
2.88360519908e-05
2.76282747825e-05
2.64726366544e-05
2.53650028245e-05
2.4301689714e-05
2.32793886529e-05
2.22951056788e-05
2.13461140171e-05
2.0429916372e-05
1.95442147675e-05
1.86868861591e-05
1.78559624753e-05
1.70496140515e-05
1.62661356907e-05
1.55039347529e-05
1.47615208321e-05
1.40374966718e-05
1.33305500545e-05
1.26394464515e-05
1.19630222656e-05
1.13001785196e-05
1.06498748717e-05
1.00111238365e-05
9.38298509993e-06
8.7645597918e-06
8.15498455573e-06
7.55342519141e-06
6.95906954253e-06
6.3711191234e-06
5.78877867742e-06
5.21124235333e-06
4.63767434803e-06
4.06718050855e-06
3.49876529813e-06
2.93126561289e-06
2.36324965405e-06
1.79286735945e-06
1.21764301741e-06
6.34215305872e-07
1.16616175458e-07
0.000188349601201
0.000190554927513
0.000191882333284
0.000192235650448
0.000191888634279
0.000191105827884
0.000190089061458
0.000188970554666
0.000187827367141
0.000186699563069
0.000185604904016
0.000184548790978
0.000183530343602
0.000182545862732
0.000181590681548
0.000180660083047
0.000179749702045
0.000178855656296
0.000177974544461
0.000177103385752
0.000176239540314
0.000175380629462
0.000174524464126
0.000173668984257
0.000172812209141
0.000171952197382
0.000171087015207
0.00017021471231
0.000169333300183
0.000168440730459
0.000167534881079
0.000166613541622
0.000165674398979
0.000164715022563
0.00016373284841
0.000162725161425
0.000161689074981
0.000160621506828
0.000159519150006
0.000158378437024
0.000157195494918
0.000155966088019
0.000154685544182
0.000153348658947
0.000151949570798
0.00015048159957
0.000148937040077
0.000147306905446
0.000145580622066
0.000143745693777
0.000141787381207
0.000139688485066
0.000137429375146
0.00013498845025
0.000132343209401
0.000129472018791
0.000126356477224
0.000122984121561
0.00011935122194
0.000115465590663
0.000111349355248
0.000107040987907
0.000102594642714
9.80746704183e-05
9.35458553113e-05
8.90637426771e-05
8.46698408406e-05
8.0392412742e-05
7.62504271531e-05
7.22580910507e-05
6.84281331424e-05
6.47731872083e-05
6.13054717971e-05
5.80354277999e-05
5.49700505928e-05
5.21114797786e-05
4.9456256108e-05
4.69954963236e-05
4.47159585009e-05
4.26016671644e-05
4.06356268703e-05
3.88012356705e-05
3.70832157319e-05
3.54680702659e-05
3.3944182288e-05
3.25016941547e-05
3.1132282757e-05
2.9828906873e-05
2.85855690678e-05
2.73971107104e-05
2.62590446092e-05
2.51674226794e-05
2.41187332598e-05
2.31098221728e-05
2.21378321799e-05
2.12001563814e-05
2.02944020727e-05
1.94183623783e-05
1.85699936774e-05
1.77473973371e-05
1.69488046784e-05
1.6172564373e-05