/*--------------------------------*- C++ -*----------------------------------*\
  =========                 |
  \\      /  F ield         | OpenFOAM: The Open Source CFD Toolbox
   \\    /   O peration     | Website:  https://openfoam.org
    \\  /    A nd           | Version:  7
     \\/     M anipulation  |
\*---------------------------------------------------------------------------*/
FoamFile
{
    version     2.0;
    format      ascii;
    class       surfaceScalarField;
    location    "3060";
    object      phi;
}
// * * * * * * * * * * * * * * * * * * * * * * * * * * * * * * * * * * * * * //

dimensions      [0 3 -1 0 0 0 0];

internalField   nonuniform List<scalar> 
16192
(
6.92945005671e-10
2.44554994329e-10
4.93608119962e-10
1.99336881161e-10
3.64873877439e-10
1.28734237995e-10
2.82269134891e-10
8.26047380839e-11
2.27599516707e-10
5.46696135424e-11
1.89924896373e-10
3.76746155648e-11
1.62905906888e-10
2.70189846541e-11
1.42832468759e-10
2.00734332887e-11
1.27472173467e-10
1.53602904694e-11
1.15433855428e-10
1.20383132612e-11
1.05817875411e-10
9.61597529581e-12
9.80211213722e-11
7.7967493899e-12
9.16255839729e-11
6.39553282776e-12
8.63327943369e-11
5.29278515708e-12
8.1924024338e-11
4.40876561585e-12
7.82353593462e-11
3.68866072259e-12
7.51416088195e-11
3.09374637549e-12
7.25456239598e-11
2.59598084777e-12
7.03710181764e-11
2.1746019163e-12
6.85570874565e-11
1.81392702246e-12
6.70551889804e-11
1.50189495469e-12
6.58261093469e-11
1.22907631683e-12
6.48381188029e-11
9.87987439259e-13
6.40655108065e-11
7.72605136284e-13
6.34874910831e-11
5.7801711577e-13
6.30873229372e-11
4.00165827397e-13
6.28516631218e-11
2.35657794761e-13
6.27700417358e-11
8.16197041356e-14
6.28344519788e-11
-6.44115771466e-14
6.3039024555e-11
-2.04573517156e-13
6.33797671389e-11
-3.40743122894e-13
6.38543552607e-11
-4.74588209126e-13
6.44619624962e-11
-6.076068627e-13
6.5203120054e-11
-7.41156671407e-13
6.60795965469e-11
-8.76475086206e-13
6.70942899273e-11
-1.01469139653e-12
6.82511228035e-11
-1.15683031226e-12
6.95549324893e-11
-1.30380648333e-12
7.10113452796e-11
-1.45640895298e-12
7.26266237695e-11
-1.61527396103e-12
7.44074733095e-11
-1.78084433402e-12
7.636079259e-11
-1.95331334742e-12
7.84933504469e-11
-2.13255122827e-12
8.08113706459e-11
-2.31801283733e-12
8.33200052134e-11
-2.50862652928e-12
8.60226801445e-11
-2.70266619799e-12
8.89203016779e-11
-2.89761219314e-12
9.20103230024e-11
-3.09001138363e-12
9.52856864205e-11
-3.27535299942e-12
9.87336806997e-11
-3.44798341471e-12
1.0233478148e-10
-3.60108962743e-12
1.06061577683e-10
-3.72678481418e-12
1.09877917978e-10
-3.8163288585e-12
1.1373843803e-10
-3.86050863924e-12
1.17588636357e-10
-3.85018715188e-12
1.21365653337e-10
-3.77700613337e-12
1.24999861026e-10
-3.63419742289e-12
1.28417296338e-10
-3.41742575089e-12
1.31542860982e-10
-3.12555608983e-12
1.34304084879e-10
-2.76121652016e-12
1.36635115018e-10
-2.33102429038e-12
1.38480488984e-10
-1.84536983424e-12
1.39798214648e-10
-1.31772359299e-12
1.40561750967e-10
-7.63536432496e-13
1.40760665887e-10
-1.98917447898e-13
1.40400002563e-10
3.60658424796e-13
1.39498627844e-10
9.01367407789e-13
1.38086987713e-10
1.41163064408e-12
1.36204688081e-10
1.88228809632e-12
1.3389822469e-10
2.30645016023e-12
1.31219024394e-10
2.67918557205e-12
1.28221808556e-10
2.99720000211e-12
1.24963186577e-10
3.25860523297e-12
1.21500359454e-10
3.46280982256e-12
1.17889839162e-10
3.61050260695e-12
1.14186153864e-10
3.70366753375e-12
1.10440573164e-10
3.74556298143e-12
1.06699938291e-10
3.74061745003e-12
1.03005697401e-10
3.69422383628e-12
9.93932340764e-11
3.61244682596e-12
9.58915374392e-11
3.50168072078e-12
9.25232172938e-11
3.36830494202e-12
8.93048228648e-11
3.21837992377e-12
8.62473960575e-11
3.05741308711e-12
8.33571756749e-11
2.89020740378e-12
8.06363731259e-11
2.72079036613e-12
7.80839512012e-11
2.55241047568e-12
7.56963568109e-11
2.38758370818e-12
7.3468175252e-11
2.22817157198e-12
7.13926909371e-11
2.07547504283e-12
6.94623502382e-11
1.93033206659e-12
6.76691317704e-11
1.7932104874e-12
6.60048329854e-11
1.6642913823e-12
6.44612855108e-11
1.54354065813e-12
6.30305108759e-11
1.43076833337e-12
6.17048287978e-11
1.32567629855e-12
6.04769277478e-11
1.22789572504e-12
5.9339907122e-11
1.13701576206e-12
5.82872976958e-11
1.05260496027e-12
5.73130666772e-11
9.7422695736e-13
5.64116113809e-11
9.01451579678e-13
5.55777454966e-11
8.338625197e-13
5.48066800599e-11
7.71062367175e-13
5.40940014964e-11
7.12675797164e-13
5.34356475876e-11
6.58351391868e-13
5.28278826822e-11
6.07762646698e-13
5.22672721833e-11
5.60608447362e-13
5.17506569222e-11
5.16613426928e-13
5.12751268515e-11
4.75528405878e-13
5.08379940793e-11
4.37131288123e-13
5.04367640913e-11
4.01228639801e-13
5.00691044838e-11
3.67658408466e-13
4.97328092129e-11
3.36294178945e-13
4.94257565413e-11
3.0705170252e-13
4.9145857113e-11
2.79898542801e-13
4.88909880517e-11
2.54868277832e-13
4.86589061079e-11
2.32081226494e-13
4.84471305073e-11
2.11774971183e-13
4.82527802247e-11
1.9434970987e-13
4.80723427909e-11
1.80436944475e-13
4.7901336775e-11
1.71005585909e-13
4.77338070176e-11
1.67529421061e-13
4.75615521325e-11
1.72254626241e-13
4.73729308935e-11
1.88621095796e-13
4.71510639038e-11
2.21866940951e-13
4.68715447466e-11
2.79519227074e-13
4.65017240649e-11
3.69820876124e-13
4.74445222313e-13
9.53431608416e-10
2.28623381561e-10
8.59670766732e-10
2.93097713781e-10
7.45081929066e-10
2.4332306661e-10
6.41804670792e-10
1.85881987158e-10
5.5646911595e-10
1.40005158909e-10
4.87878914969e-10
1.06264806918e-10
4.3301839915e-10
8.18794907921e-11
3.88940427856e-10
6.41513949196e-11
3.5323586221e-10
5.10648465145e-11
3.24051299038e-10
4.12228669282e-11
2.99989305217e-10
3.36779597319e-11
2.79998794454e-10
2.77872509103e-11
2.63284471932e-10
2.31098462662e-11
2.49238667138e-10
1.93385810491e-11
2.37391830925e-10
1.6255593126e-11
2.27377009446e-10
1.37034737235e-11
2.18904347557e-10
1.15664000338e-11
2.11742675176e-10
9.75764527437e-12
2.05706081461e-10
8.21118797671e-12
2.00644016285e-10
6.87598488231e-12
1.96433906266e-10
5.71199802023e-12
1.92975581987e-10
4.68739404728e-12
1.90187024412e-10
3.77653890135e-12
1.8800108374e-10
2.95854017578e-12
1.8636292336e-10
2.21617237831e-12
1.85228010893e-10
1.5350737431e-12
1.84560526232e-10
9.03138506955e-13
1.84332090701e-10
3.10051946511e-13
1.84520745088e-10
-2.53068553098e-13
1.85110121253e-10
-7.93951511164e-13
1.86088764123e-10
-1.31938701862e-12
1.87449571174e-10
-1.83539541616e-12
1.89189320648e-10
-2.3473555825e-12
1.91308263999e-10
-2.86009828692e-12
1.93809759965e-10
-3.37796829395e-12
1.96699929202e-10
-3.90485678296e-12
1.99987307599e-10
-4.44420373133e-12
2.03682475771e-10
-4.99896848262e-12
2.07797639482e-10
-5.57156527266e-12
2.12346133726e-10
-6.16375953965e-12
2.17341819367e-10
-6.77652003073e-12
2.22798339098e-10
-7.40982182153e-12
2.28728196616e-10
-8.06239620309e-12
2.35141623689e-10
-8.73142607894e-12
2.42045202286e-10
-9.41219007311e-12
2.49440218661e-10
-1.00976663392e-11
2.57320741736e-10
-1.07781179725e-11
2.65671445509e-10
-1.1440696885e-11
2.74465232187e-10
-1.20691206008e-11
2.83660764035e-10
-1.26434955134e-11
2.9320007076e-10
-1.31403761489e-11
3.0300646472e-10
-1.35331582921e-11
3.12983053257e-10
-1.37928968963e-11
3.23012177357e-10
-1.38896124455e-11
3.32956107584e-10
-1.37940976138e-11
3.42659282876e-10
-1.34801624781e-11
3.51952270349e-10
-1.29271671815e-11
3.60657459063e-10
-1.21225983732e-11
3.68596279688e-10
-1.10643627705e-11
3.75597491903e-10
-9.7624174231e-12
3.81505832621e-10
-8.23935691029e-12
3.86190135853e-10
-6.52966865408e-12
3.89549985402e-10
-4.67757289242e-12
3.91520112615e-10
-2.73366781436e-12
3.92072101369e-10
-7.50914960271e-13
3.91213439072e-10
1.21930748633e-12
3.88984406578e-10
3.13038239689e-12
3.85453586233e-10
4.94242966209e-12
3.80712788795e-10
6.62306084603e-12
3.748720398e-10
8.14717170834e-12
3.68054987821e-10
9.49620787506e-12
3.60394823116e-10
1.0657333402e-11
3.52030604727e-10
1.16227911716e-11
3.43103826795e-10
1.23895546848e-11
3.33755089137e-10
1.29592069699e-11
3.24120837841e-10
1.33378857379e-11
3.1433025177e-10
1.35361164533e-11
3.0450243566e-10
1.35684017713e-11
2.94744108746e-10
1.34525199543e-11
2.85147952711e-10
1.32085732674e-11
2.75791711492e-10
1.28578936356e-11
2.66738048555e-10
1.24219409859e-11
2.58035082926e-10
1.19213200817e-11
2.49717467233e-10
1.13750047863e-11
2.41807840601e-10
1.07998114811e-11
2.34318490339e-10
1.02101195225e-11
2.27253075612e-10
9.61780547797e-12
2.20608299673e-10
9.03234128579e-12
2.1437545115e-10
8.46100301434e-12
2.08541768449e-10
7.90914191377e-12
2.03091606592e-10
7.38047925303e-12
1.9800740635e-10
6.87739718393e-12
1.93270477252e-10
6.401207973e-12
1.88861614505e-10
5.95239189862e-12
1.84761572106e-10
5.53080014397e-12
1.80951415838e-10
5.13582286214e-12
1.77412777592e-10
4.76652507304e-12
1.74128031071e-10
4.42175416026e-12
1.71080405344e-10
4.10022326693e-12
1.68254050833e-10
3.80057472247e-12
1.65634068877e-10
3.5214273956e-12
1.63206514533e-10
3.26141130374e-12
1.60958379445e-10
3.01919241387e-12
1.58877560695e-10
2.79348999947e-12
1.56952819372e-10
2.58308860302e-12
1.55173732114e-10
2.38684620916e-12
1.53530637164e-10
2.20370006239e-12
1.52014576332e-10
2.03267126857e-12
1.50617232744e-10
1.8728692978e-12
1.49330864258e-10
1.72349736042e-12
1.48148230963e-10
1.58385975905e-12
1.47062515086e-10
1.45337233844e-12
1.46067230034e-10
1.33157747325e-12
1.45156114888e-10
1.21816527714e-12
1.44323008696e-10
1.11300331689e-12
1.43561697992e-10
1.01617771875e-12
1.4286572847e-10
9.280496158e-13
1.42228170405e-10
8.49332045141e-13
1.41641325228e-10
7.81194021719e-13
1.41096361635e-10
7.25399821384e-13
1.40582875148e-10
6.84491505142e-13
1.40088387753e-10
6.62016432065e-13
1.39597867115e-10
6.6277507493e-13
1.39093514872e-10
6.92973382469e-13
1.38555519913e-10
7.59862172963e-13
1.37965571251e-10
8.69468317848e-13
1.37318457277e-10
1.01693526647e-12
1.15149731427e-12
9.76226150947e-10
1.89897226091e-10
9.62932728336e-10
3.0639112682e-10
9.05903041929e-10
3.00352743573e-10
8.33293687683e-10
2.58491331987e-10
7.60102630732e-10
2.13196206239e-10
6.92749131824e-10
1.73618296082e-10
6.33313226646e-10
1.41315386178e-10
5.81908126074e-10
1.15556485714e-10
5.37858108794e-10
9.51148540625e-11
5.00247331938e-10
7.88336341329e-11
4.6815830476e-10
6.57669773545e-11
4.40763713682e-10
5.51818325536e-11
4.17351964663e-10
4.65215859802e-11
3.973247435e-10
3.93657930625e-11
3.80184299047e-10
3.3396028597e-11
3.65518289289e-10
2.83694746957e-11
3.52985404911e-10
2.4099275835e-11
3.42302878393e-10
2.0440163458e-11
3.33236071381e-10
1.72779869125e-11
3.2558997115e-10
1.45220773345e-11
3.19202313162e-10
1.20996485431e-11
3.13938039075e-10
9.95166102704e-12
3.09684831178e-10
8.02974006633e-12
3.06349507185e-10
6.2938578647e-12
3.03855100145e-10
4.71057355936e-12
3.021384842e-10
3.25168433254e-12
3.0114843541e-10
1.89318246571e-12
3.0084404027e-10
6.14442841068e-13
3.01193381759e-10
-6.02413677513e-13
3.02172445766e-10
-1.77301847539e-12
3.03764201853e-10
-2.91114536063e-12
3.05957820758e-10
-4.02901579831e-12
3.087479938e-10
-5.13752930036e-12
3.1213432378e-10
-6.24642805998e-12
3.16120758115e-10
-7.36440151897e-12
3.2071503611e-10
-8.49913267887e-12
3.25928120683e-10
-9.65728520028e-12
3.31773583942e-10
-1.08444275458e-11
3.38266912514e-10
-1.20648885536e-11
3.4542469643e-10
-1.33215369877e-11
3.53263661201e-10
-1.46154771719e-11
3.61799501343e-10
-1.59456531069e-11
3.71045471587e-10
-1.73083564057e-11
3.81010695368e-10
-1.86966385957e-11
3.91698155994e-10
-2.00996382958e-11
4.03102351378e-10
-2.15018481784e-11
4.15206615844e-10
-2.28823678869e-11
4.27980150182e-10
-2.42142157021e-11
4.41374849924e-10
-2.54638040411e-11
4.55322087708e-10
-2.65907162936e-11
4.69729679127e-10
-2.75479500987e-11
4.84479341675e-10
-2.8282803019e-11
4.9942502362e-10
-2.87385609525e-11
5.14392523627e-10
-2.88570946465e-11
5.29180815686e-10
-2.85823722935e-11
5.43565427795e-10
-2.78647578441e-11
5.57304078287e-10
-2.66658020021e-11
5.70144559204e-10
-2.49630649912e-11
5.81834574642e-10
-2.27543658318e-11
5.92132928176e-10
-2.0060760898e-11
6.0082114157e-10
-1.69275631749e-11
6.0771435661e-10
-1.34228798844e-11
6.12670304498e-10
-9.6335208119e-12
6.15595314893e-10
-5.65868226884e-12
6.16446782913e-10
-1.60239129941e-12
6.15232128176e-10
2.4339498112e-12
6.1200486776e-10
6.35762644221e-12
6.06858795234e-10
1.00884823434e-11
5.99921293021e-10
1.35605401154e-11
5.91346600261e-10
1.67218390555e-11
5.81309508787e-10
1.9533271903e-11
5.69999620177e-10
2.19671931479e-11
5.57616063096e-10
2.40063183683e-11
5.44362489593e-10
2.56430978237e-11
5.30442211687e-10
2.68794543499e-11
5.160534624e-10
2.77266047819e-11
5.01384897681e-10
2.8204651436e-11
4.86611555947e-10
2.83417146129e-11
4.71891521524e-10
2.81725264533e-11
4.57363501827e-10
2.7736566237e-11
4.43145434522e-10
2.70759354478e-11
4.29334128868e-10
2.62332225207e-11
4.16005837463e-10
2.52495887093e-11
4.03217580339e-10
2.41632405473e-11
3.91009003951e-10
2.30083678462e-11
3.79404557752e-10
2.18145470666e-11
3.68415794072e-10
2.06065517721e-11
3.58043638034e-10
1.94044812072e-11
3.48280516546e-10
1.82241095462e-11
3.39112277913e-10
1.70773667408e-11
3.30519866427e-10
1.59728779695e-11
3.22480743633e-10
1.49165082326e-11
3.14970064549e-10
1.39118762281e-11
3.07961629615e-10
1.29608169052e-11
3.01428637682e-10
1.20637829524e-11
2.95344268618e-10
1.12201835925e-11
2.89682122427e-10
1.04286636291e-11
2.84416540878e-10
9.68732876385e-12
2.7952283369e-10
8.99392411423e-12
2.74977429265e-10
8.34597340383e-12
2.70757965794e-10
7.74088564168e-12
2.66843336658e-10
7.17603572888e-12
2.63213700447e-10
6.64882435223e-12
2.59850464603e-10
6.15672200834e-12
2.56736248746e-10
5.6973009913e-12
2.53854833037e-10
5.26825881759e-12
2.5119109452e-10
4.86743577778e-12
2.48730934115e-10
4.49282917784e-12
2.46461194858e-10
4.1426062999e-12
2.44369571992e-10
3.815118221e-12
2.42444513601e-10
3.50891633663e-12
2.40675110556e-10
3.22277377222e-12
2.39050972764e-10
2.9557138042e-12
2.37562088784e-10
2.70704796058e-12
2.3619866433e-10
2.47642659195e-12
2.34950935672e-10
2.26390533727e-12
2.33808953453e-10
2.07003089329e-12
2.3276233522e-10
1.89594946376e-12
2.31799989129e-10
1.74353939482e-12
2.30909823442e-10
1.61556492919e-12
2.30078478986e-10
1.51583550281e-12
2.29291169463e-10
1.44932567197e-12
2.28531804489e-10
1.4221399305e-12
2.27783742147e-10
1.44103582035e-12
2.27031810775e-10
1.51179387942e-12
2.26266690767e-10
1.63458882699e-12
2.2549196508e-10
1.79166147475e-12
1.91780893754e-12
9.71726215019e-10
1.55671006471e-10
9.86495283581e-10
2.91622048212e-10
9.67732320777e-10
3.19115696592e-10
9.27054470255e-10
2.99169172653e-10
8.76322844796e-10
2.63927821598e-10
8.23069585621e-10
2.26871545017e-10
7.71455450386e-10
1.92929511115e-10
7.23523663996e-10
1.63488261801e-10
6.80096437547e-10
1.38542070235e-10
6.41331327293e-10
1.17598734161e-10
6.07046910921e-10
1.00051383567e-10
5.76906581162e-10
8.53221522381e-11
5.50518908421e-10
7.29092487442e-11
5.27490231867e-10
6.23944597535e-11
5.07450460381e-10
5.34357903485e-11
4.90064171214e-10
4.5755754278e-11
4.75033868154e-10
3.9129569474e-11
4.62099243712e-10
3.33747786684e-11
4.51034567174e-10
2.83426544246e-11
4.41645345834e-10
2.39112898819e-11
4.33764859653e-10
1.99801261844e-11
4.27250866174e-10
1.64656462491e-11
4.21982606288e-10
1.32979920005e-11
4.17858152943e-10
1.04183035971e-11
4.14792099119e-10
7.77662013535e-12
4.12713559757e-10
5.33021684745e-12
4.11564453044e-10
3.0422827611e-12
4.11298024209e-10
8.80865730006e-13
4.1187757556e-10
-1.18197047214e-12
4.13275366833e-10
-3.17081464513e-12
4.15471655943e-10
-5.10743878293e-12
4.18453850514e-10
-7.01121404831e-12
4.2221574014e-10
-8.89942193423e-12
4.26756781343e-10
-1.07874715441e-11
4.32081406627e-10
-1.26890283151e-11
4.38198328261e-10
-1.4616054998e-11
4.45119805236e-10
-1.65787619912e-11
4.52860839656e-10
-1.8585460852e-11
4.61438265415e-10
-2.06423122295e-11
4.70869689178e-10
-2.27529576404e-11
4.81172240299e-10
-2.49180241248e-11
4.92361084835e-10
-2.71344923697e-11
5.0444765848e-10
-2.93949236583e-11
5.17437577469e-10
-3.16865500481e-11
5.31328195211e-10
-3.39902473704e-11
5.46105790097e-10
-3.62794332731e-11
5.61742397196e-10
-3.85189641224e-11
5.78192338274e-10
-4.06641448883e-11
5.95388560423e-10
-4.26600133657e-11
6.13238966092e-10
-4.4441108294e-11
6.31623000687e-10
-4.59319703169e-11
6.50388852638e-10
-4.70486400168e-11
6.69351698013e-10
-4.77013909809e-11
6.88293470217e-10
-4.77988512919e-11
7.06964629614e-10
-4.72535161641e-11
7.25088330613e-10
-4.59884436088e-11
7.42367220246e-10
-4.39446770404e-11
7.58492856295e-10
-4.10886874614e-11
7.73157414709e-10
-3.74189121588e-11
7.86066994018e-10
-3.29703301144e-11
7.96955458522e-10
-2.78160201432e-11
8.05597471007e-10
-2.20648879117e-11
8.1181925883e-10
-1.58553077346e-11
8.15505853966e-10
-9.34528038564e-12
8.16604082193e-10
-2.70062655979e-12
8.15121335674e-10
3.91668530091e-12
8.11120896495e-10
1.03580508205e-11
8.04715025313e-10
1.64943353607e-11
7.96057058941e-10
2.2218485433e-11
7.85333481877e-10
2.74453927232e-11
7.72756500321e-10
3.21102282375e-11
7.58557237952e-10
3.61664289935e-11
7.42979410156e-10
3.95841187957e-11
7.26273255215e-10
4.23492249994e-11
7.08689571025e-10
4.44631107473e-11
6.90473859943e-10
4.5942288404e-11
6.7186074589e-10
4.68177386333e-11
6.5306894176e-10
4.71334927471e-11
6.34297075185e-10
4.69443680594e-11
6.15720627386e-10
4.63129902503e-11
5.97490123114e-10
4.53064171884e-11
5.79730570728e-10
4.39927537009e-11
5.62542024148e-10
4.24381154116e-11
5.46001051103e-10
4.07041950528e-11
5.30162850169e-10
3.88465515366e-11
5.15063760686e-10
3.69136205742e-11
5.00723939458e-10
3.49463582247e-11
4.8715002498e-10
3.29783820623e-11
4.74337659582e-10
3.10364623957e-11
4.62273786991e-10
2.91412278053e-11
4.50938680858e-10
2.73079735164e-11
4.40307689787e-10
2.55474896081e-11
4.30352704432e-10
2.38668527035e-11
4.21043365982e-10
2.22701472451e-11
4.12348042145e-10
2.07590993828e-11
4.04234600378e-10
1.93336186163e-11
3.96671007838e-10
1.79922500308e-11
3.89625786405e-10
1.67325446289e-11
3.83068348041e-10
1.55513574278e-11
3.76969233089e-10
1.44450837932e-11
3.71300270467e-10
1.34098441427e-11
3.66034676038e-10
1.24416264518e-11
3.61147102182e-10
1.15363948732e-11
3.56613649439e-10
1.06901717647e-11
3.52411848459e-10
9.89909929359e-12
3.48520618957e-10
9.1594859311e-12
3.44920210303e-10
8.46784229438e-12
3.41592127341e-10
7.82091023802e-12
3.38519043377e-10
7.21568856445e-12
3.35684701616e-10
6.64945847011e-12
3.33073804998e-10
6.11981160232e-12
3.30671893969e-10
5.62468359801e-12
3.28465210759e-10
5.16239593485e-12
3.26440548734e-10
4.7317090259e-12
3.24585085071e-10
4.33188939348e-12
3.22886196151e-10
3.96279349364e-12
3.21331256635e-10
3.62496973115e-12
3.1990742761e-10
3.31977790218e-12
3.18601446386e-10
3.04952012033e-12
3.17399444236e-10
2.81756668827e-12
3.16286840816e-10
2.6284386524e-12
3.15248401628e-10
2.48776474502e-12
3.14268601987e-10
2.40193963862e-12
3.13332517804e-10
2.37712027748e-12
3.12427523335e-10
2.41678880919e-12
3.11545857096e-10
2.51625563063e-12
3.106864968e-10
2.65102230298e-12
2.75649091512e-12
9.63881445804e-10
1.29289555447e-10
9.87451786952e-10
2.68051696247e-10
9.89240033155e-10
3.17327439819e-10
9.71336596818e-10
3.17072598498e-10
9.40692518707e-10
2.94571889019e-10
9.03359274891e-10
2.64204778011e-10
8.63536708877e-10
2.32752066249e-10
8.23876605034e-10
2.03148354751e-10
7.859389838e-10
1.76479680589e-10
7.50565585473e-10
1.52972121644e-10
7.18144455033e-10
1.3247250321e-10
6.88786792265e-10
1.14679804273e-10
6.62441559161e-10
9.92544711893e-11
6.38968211507e-10
8.58677968376e-11
6.18182017868e-10
7.42219735208e-11
5.99881731335e-10
6.40560304634e-11
5.83866037272e-10
5.5145253324e-11
5.69942938026e-10
4.72978678577e-11
5.57934743535e-10
4.03508390289e-11
5.47680367622e-10
3.41656561021e-11
5.39036005777e-10
2.86244785495e-11
5.3187487112e-10
2.36267716639e-11
5.26086410629e-10
1.90864435072e-11
5.2157526199e-10
1.49294435388e-11
5.18260108657e-10
1.10917650799e-11
5.16072525787e-10
7.51779167022e-12
5.14955868431e-10
4.15893243848e-12
5.1486422743e-10
9.72499455194e-13
5.15761461983e-10
-2.07921186804e-12
5.17620304401e-10
-5.02966343152e-12
5.20421533357e-10
-7.90867360115e-12
5.24153200553e-10
-1.07428865524e-11
5.28809892546e-10
-1.35561186449e-11
5.34392008066e-10
-1.63695911358e-11
5.4090502779e-10
-1.92020514257e-11
5.48358750741e-10
-2.20697805881e-11
5.56766467923e-10
-2.49864810208e-11
5.66144040627e-10
-2.79630345472e-11
5.7650884687e-10
-3.10071185596e-11
5.87878556184e-10
-3.41226660721e-11
6.00269689631e-10
-3.73091556768e-11
6.13695920402e-10
-4.05607201722e-11
6.28166070434e-10
-4.38650696201e-11
6.43681762916e-10
-4.72022373126e-11
6.60234699821e-10
-5.05431779053e-11
6.77803551747e-10
-5.38482776597e-11
6.96350475562e-10
-5.70658792581e-11
7.15817318402e-10
-6.01309779314e-11
7.36121625236e-10
-6.29643093572e-11
7.57152644116e-10
-6.54721153486e-11
7.78767614108e-10
-6.75469276217e-11
8.00788719716e-10
-6.90697321803e-11
8.23001185305e-10
-6.9913842538e-11
8.45153043479e-10
-6.99506950044e-11
8.66957113601e-10
-6.9057571633e-11
8.88095648762e-10
-6.71269641685e-11
9.08227934938e-10
-6.40769490152e-11
9.27000858276e-10
-5.98615973739e-11
9.440621066e-10
-5.44801483331e-11
9.5907526385e-10
-4.79834770113e-11
9.71735625098e-10
-4.0476373446e-11
9.81785184386e-10
-3.21144422217e-11
9.89025065864e-10
-2.3095187739e-11
9.93323855436e-10
-1.36440723413e-11
9.94620926707e-10
-3.99770427349e-12
9.9292480844e-10
5.612793132e-12
9.88307568708e-10
1.49752763584e-11
9.80896731002e-10
2.39051555569e-11
9.70866234877e-10
3.22489612253e-11
9.58427554742e-10
3.98840502762e-11
9.43821521824e-10
4.67162368423e-11
9.27310894411e-10
5.26770308899e-11
9.09173428451e-10
5.77215584839e-11
8.89695141464e-10
6.18274854036e-11
8.69163579947e-10
6.49946457324e-11
8.47861106574e-10
6.72447356479e-11
8.26058427177e-10
6.86203925698e-11
8.04008713274e-10
6.91831821078e-11
7.81942705343e-10
6.90103525269e-11
7.60065107593e-10
6.81905657575e-11
7.3855243647e-10
6.68190673563e-11
7.17552313789e-10
6.49928567702e-11
6.97184045177e-10
6.2806365751e-11
6.77540226041e-10
6.03479972521e-11
6.58689075769e-10
5.7697686156e-11
6.40677209106e-10
5.49254728305e-11
6.2353259297e-10
5.20909611239e-11
6.07267492369e-10
4.9243470538e-11
5.91881265601e-10
4.64226780692e-11
5.77362920362e-10
4.36595629154e-11
5.63693383388e-10
4.09775012466e-11
5.50847467519e-10
3.83933970598e-11
5.38795541229e-10
3.59187713296e-11
5.27504919668e-10
3.35607618442e-11
5.16941003654e-10
3.13230090736e-11
5.07068196781e-10
2.92064197625e-11
4.97850631001e-10
2.7209810624e-11
4.89252729976e-10
2.53304409735e-11
4.81239636736e-10
2.35644464447e-11
4.73777529526e-10
2.19071872091e-11
4.66833846262e-10
2.03535239975e-11
4.60377435257e-10
1.88980344091e-11
4.54378646691e-10
1.7535180713e-11
4.48809377006e-10
1.62594390231e-11
4.43643075795e-10
1.50653983431e-11
4.38854723013e-10
1.39478367972e-11
4.34420782337e-10
1.29017812684e-11
4.30319135238e-10
1.19225558323e-11
4.26528998821e-10
1.10058236451e-11
4.23030829645e-10
1.01476264667e-11
4.19806214617e-10
9.34442558045e-12
4.16837749649e-10
8.59314763843e-12
4.14108906068e-10
7.89123868837e-12
4.11603884974e-10
7.23672938706e-12
4.09307459875e-10
6.62831383808e-12
4.07204809303e-10
6.06544348914e-12
4.0528134313e-10
5.54843539561e-12
4.03522530422e-10
5.07859017592e-12
4.01913742848e-10
4.6583073342e-12
4.00440137767e-10
4.29117150149e-12
3.99086619484e-10
3.98195677608e-12
3.97837936939e-10
3.73644727715e-12
3.96678997141e-10
3.5608796021e-12
3.95595479422e-10
3.46063837972e-12
3.94574754746e-10
3.43751406284e-12
3.93606700773e-10
3.48431023514e-12
3.92682501986e-10
3.57522163638e-12
3.65230694581e-12
9.57465193203e-10
1.09324356811e-10
9.8224120657e-10
2.43275671668e-10
9.94387758212e-10
3.05180877304e-10
9.91175168638e-10
3.20285177148e-10
9.7576180233e-10
3.0998524416e-10
9.5225982738e-10
2.87706741656e-10
9.24129602395e-10
2.60882279872e-10
8.93911255311e-10
2.33366690459e-10
8.6334789066e-10
2.07043033874e-10
8.3357863458e-10
1.82741366382e-10
8.05310726382e-10
1.60740400103e-10
7.78952606717e-10
1.41037912678e-10
7.54711052976e-10
1.23496013726e-10
7.3266001692e-10
1.07918821757e-10
7.12788539262e-10
9.40934401209e-11
6.9503366126e-10
8.18108975019e-11
6.79302764042e-10
7.08761396852e-11
6.65488541061e-10
6.11120801067e-11
6.53478879225e-10
5.23604902716e-11
6.43163245681e-10
4.44812792121e-11
6.34436692361e-10
3.73510216111e-11
6.27202248605e-10
3.08612053592e-11
6.21372232937e-10
2.49164493298e-11
6.16868848673e-10
1.94328181995e-11
6.13624312381e-10
1.43362920304e-11
6.11580684173e-10
9.56141082703e-12
6.10689513058e-10
5.05009481663e-12
6.10911371825e-10
7.50632300096e-13
6.12215328692e-10
-3.38317674755e-12
6.14578380653e-10
-7.39272299041e-12
6.17984870914e-10
-1.13151710127e-11
6.22425889489e-10
-1.51839117826e-11
6.27898653184e-10
-1.90288884636e-11
6.34405855663e-10
-2.28767991496e-11
6.41954972377e-10
-2.67511730408e-11
6.50557500453e-10
-3.06723128665e-11
6.6022810875e-10
-3.46570927673e-11
6.70983669019e-10
-3.87185974408e-11
6.82842134502e-10
-4.28655857807e-11
6.9582122841e-10
-4.71017607535e-11
7.09936901024e-10
-5.14248280374e-11
7.25201512082e-10
-5.58253298737e-11
7.41621694688e-10
-6.02852497141e-11
7.59195860469e-10
-6.477639936e-11
7.77911313951e-10
-6.9258626403e-11
7.97740960768e-10
-7.36779182042e-11
8.1863962119e-10
-7.79645321263e-11
8.40540002557e-10
-8.20313504683e-11
8.63348443546e-10
-8.57727402948e-11
8.86940623538e-10
-8.90642841236e-11
9.11157529175e-10
-9.17638209827e-11
9.35802082196e-10
-9.37142719756e-11
9.60636940708e-10
-9.47486870347e-11
9.85384066511e-10
-9.46978061769e-11
1.00972667036e-09
-9.34001604643e-11
1.03331407596e-09
-9.0714354628e-11
1.05576986288e-09
-8.653272103e-11
1.07670336104e-09
-8.07950812731e-11
1.09572418859e-09
-7.35009627912e-11
1.11245906898e-09
-6.47183460628e-11
1.12656965169e-09
-5.45869472388e-11
1.13776956638e-09
-4.33143510793e-11
1.14583863595e-09
-3.1164255142e-11
1.15063232204e-09
-1.84377603828e-11
1.15208524411e-09
-5.45063260315e-12
1.15020884499e-09
7.48918173232e-12
1.14508448622e-09
2.0099620656e-11
1.13685391904e-09
3.21357048243e-11
1.12570900565e-09
4.33938538599e-11
1.11188197719e-09
5.37110557458e-11
1.09563675225e-09
6.29614371414e-11
1.07726121647e-09
7.10525409132e-11
1.05706003866e-09
7.79227098849e-11
1.03534757669e-09
8.35399207582e-11
1.01244061659e-09
8.79015793956e-11
9.88650970775e-10
9.1034355534e-11
9.64278225127e-10
9.29931130854e-11
9.39603091541e-10
9.38582915941e-11
9.14881851971e-10
9.37315691953e-11
8.9034227651e-10
9.27301196459e-11
8.66181206312e-10
9.09801173717e-11
8.42563778248e-10
8.86102660832e-11
8.19624089543e-10
8.5746037124e-11
7.97466991278e-10
8.25050795836e-11
7.76170662307e-10
7.89940005327e-11
7.55789635261e-10
7.53064865654e-11
7.36357999747e-10
7.15225845232e-11
7.17892574756e-10
6.77088845406e-11
7.00395907012e-10
6.39193358553e-11
6.83859007812e-10
6.01964531139e-11
6.68263783803e-10
5.65727171217e-11
6.5358514863e-10
5.30720248974e-11
6.39792823107e-10
4.97110902379e-11
6.26852844734e-10
4.65007342646e-11
6.14728814253e-10
4.34470341974e-11
6.03382910071e-10
4.05523191362e-11
5.92776701416e-10
3.78160149654e-11
5.82871789795e-10
3.52353487366e-11
5.73630305706e-10
3.28059270856e-11
5.65015284792e-10
3.05222050538e-11
5.56990944415e-10
2.83778616446e-11
5.49522878794e-10
2.63660976146e-11
5.42578187883e-10
2.44798694857e-11
5.36125552797e-10
2.2712072228e-11
5.30135268121e-10
2.10556813626e-11
5.24579239651e-10
1.95038638176e-11
5.19430954182e-10
1.80500654658e-11
5.14665426669e-10
1.66880822361e-11
5.10259128647e-10
1.54121206955e-11
5.06189900933e-10
1.42168533342e-11
5.02436852637e-10
1.3097473133e-11
4.98980248067e-10
1.20497515588e-11
4.95801382597e-10
1.10701035857e-11
4.92882448686e-10
1.01556627975e-11
4.90206393452e-10
9.30436862921e-12
4.87756770287e-10
8.51506626743e-12
4.85517588517e-10
7.78761682969e-12
4.83473167949e-10
7.12301046354e-12
4.81608009001e-10
6.5234660587e-12
4.79906694647e-10
5.99248570624e-12
4.78353846773e-10
5.53480459258e-12
4.76934165065e-10
5.15612905303e-12
4.75632573164e-10
4.86247172998e-12
4.74434461349e-10
4.65875061634e-12
4.73325877861e-10
4.54609815702e-12
4.72293100924e-10
4.51708782603e-12
4.7132006532e-10
4.54825779354e-12
4.59119814606e-12
9.52826311614e-10
9.39980393689e-11
9.76115132701e-10
2.19986838923e-10
9.9303940957e-10
2.8825658908e-10
9.98905745953e-10
3.14418829502e-10
9.94357241717e-10
3.14533736941e-10
9.81813746054e-10
3.00250225743e-10
9.63824526879e-10
2.78871487424e-10
9.42526620941e-10
2.54664584766e-10
9.19553465815e-10
2.3001617738e-10
8.96092175727e-10
2.06202644872e-10
8.72974584967e-10
1.83857979295e-10
8.50763487648e-10
1.63248998468e-10
8.29823714684e-10
1.44435775207e-10
8.10377407699e-10
1.27365117314e-10
7.92545755584e-10
1.11925080876e-10
7.76379966001e-10
9.79766758036e-11
7.61883975322e-10
8.53721191772e-11
7.4903094127e-10
7.3965103078e-11
7.37775113176e-10
6.36163074082e-11
7.28060294307e-10
5.41960872621e-11
7.19825807753e-10
4.55854975018e-11
7.13010643423e-10
3.76763592016e-11
7.07556286335e-10
3.03707961231e-11
7.03408593452e-10
2.35805010031e-11
7.00518987236e-10
1.7225888405e-11
6.98845160759e-10
1.12352277234e-11
6.9835143485e-10
5.54381143258e-12
6.99008867561e-10
9.31906114529e-14
7.00795184346e-10
-5.16950216268e-12
7.03694576524e-10
-1.02921234176e-11
7.07697407052e-10
-1.53180093702e-11
7.12799833225e-10
-2.02863453256e-11
7.19003355927e-10
-2.52324180294e-11
7.26314295049e-10
-3.01877445783e-11
7.34743183578e-10
-3.5180067264e-11
7.44304066629e-10
-4.02332009372e-11
7.55013685923e-10
-4.53667163379e-11
7.66890524908e-10
-5.059543989e-11
7.79953684579e-10
-5.59287480225e-11
7.94221555261e-10
-6.13696330358e-11
8.09710245392e-10
-6.69135187129e-11
8.26431725038e-10
-7.25468089288e-11
8.44391640364e-10
-7.82451632345e-11
8.63586756684e-10
-8.39715125923e-11
8.84001993802e-10
-8.96738590938e-11
9.05607030739e-10
-9.52829493341e-11
9.28352480925e-10
-1.00709975107e-10