/*--------------------------------*- C++ -*----------------------------------*\
  =========                 |
  \\      /  F ield         | OpenFOAM: The Open Source CFD Toolbox
   \\    /   O peration     | Website:  https://openfoam.org
    \\  /    A nd           | Version:  7
     \\/     M anipulation  |
\*---------------------------------------------------------------------------*/
FoamFile
{
    version     2.0;
    format      ascii;
    class       volVectorField;
    location    "3060";
    object      U;
}
// * * * * * * * * * * * * * * * * * * * * * * * * * * * * * * * * * * * * * //

dimensions      [0 1 -1 0 0 0 0];

internalField   nonuniform List<vector> 
8192
(
(0.00104348480363 0.00015651519637 0)
(0.000759394000405 0.000127575603943 0)
(0.000549428478337 8.23899123168e-05 0)
(0.000414171527891 5.28670323737e-05 0)
(0.000326315937023 3.49885526672e-05 0)
(0.000267215624371 2.41117539615e-05 0)
(0.000225811714087 1.72921501786e-05 0)
(0.000195672560414 1.28469973048e-05 0)
(0.000172994971025 9.83058590044e-06 0)
(0.000155459858493 7.70452048718e-06 0)
(0.000141601107737 6.15422418932e-06 0)
(0.000130456957941 4.98991960953e-06 0)
(0.000121373891421 4.09314100976e-06 0)
(0.000113893362118 3.38738250053e-06 0)
(0.000107684363952 2.82160999415e-06 0)
(0.000102502005558 2.36074286246e-06 0)
(9.8161259626e-05 1.97999768031e-06 0)
(9.45198289788e-05 1.66142774257e-06 0)
(9.14666509672e-05 1.39174522643e-06 0)
(8.8913987605e-05 1.16091329438e-06 0)
(8.67918569196e-05 9.61212771003e-07 0)
(8.50440309295e-05 7.86608842772e-07 0)
(8.36251060159e-05 6.32311961126e-07 0)
(8.24983229501e-05 4.94467287222e-07 0)
(8.16339212093e-05 3.69930954093e-07 0)
(8.1007880973e-05 2.56106129534e-07 0)
(8.06009510778e-05 1.50820988647e-07 0)
(8.03978911089e-05 5.22366106468e-08 0)
(8.03868759774e-05 -4.12234093738e-08 0)
(8.05590249816e-05 -1.3092705098e-07 0)
(8.09080266841e-05 -2.18075598652e-07 0)
(8.14298383358e-05 -3.03736453841e-07 0)
(8.21224433644e-05 -3.88868392128e-07 0)
(8.29856528321e-05 -4.743402697e-07 0)
(8.40209386246e-05 -5.60944055172e-07 0)
(8.52312873435e-05 -6.4940249378e-07 0)
(8.66210641477e-05 -7.40371399843e-07 0)
(8.81958753874e-05 -8.34436149334e-07 0)
(8.99624177721e-05 -9.32101729908e-07 0)
(9.19283001914e-05 -1.03377533506e-06 0)
(9.41018221306e-05 -1.13974037377e-06 0)
(9.64916901757e-05 -1.25012054235e-06 0)
(9.91066515437e-05 -1.3648327861e-06 0)
(0.000101955021499 -1.48352821589e-06 0)
(0.00010504408055 -1.60552097874e-06 0)
(0.000108379318629 -1.72970636672e-06 0)
(0.000111963508366 -1.85447180361e-06 0)
(0.000115795599795 -1.97760728552e-06 0)
(0.000119869446031 -2.09622591963e-06 0)
(0.000124172394957 -2.20670938542e-06 0)
(0.000128683815795 -2.30469736156e-06 0)
(0.000133373669864 -2.38514228108e-06 0)
(0.000138201277223 -2.44245046944e-06 0)
(0.000143114467845 -2.47072552912e-06 0)
(0.000148049327608 -2.4641197772e-06 0)
(0.000152930745404 -2.41728392535e-06 0)
(0.000157673929192 -2.32588635065e-06 0)
(0.000162186980713 -2.18715248057e-06 0)
(0.000166374500685 -2.00035589749e-06 0)
(0.000170142045351 -1.76717857291e-06 0)
(0.000173401087934 -1.49185554584e-06 0)
(0.000176073986561 -1.18103669391e-06 0)
(0.000178098370324 -8.43343099515e-07 0)
(0.000179430377993 -4.88663316798e-07 0)
(0.000180046346787 -1.27307166655e-07 0)
(0.000179942827808 2.30821391869e-07 0)
(0.00017913512346 5.76875140985e-07 0)
(0.000177654793957 9.0344361221e-07 0)
(0.000175546672508 1.20466438165e-06 0)
(0.000172865864173 1.47612810255e-06 0)
(0.000169675039414 1.71467876611e-06 0)
(0.000166042133088 1.91820800135e-06 0)
(0.000162038396885 2.0855073491e-06 0)
(0.00015773666946 2.21619828644e-06 0)
(0.000153209727114 2.31072166845e-06 0)
(0.000148528635536 2.3703472216e-06 0)
(0.000143761105298 2.39716030811e-06 0)
(0.000138969927331 2.39399516802e-06 0)
(0.000134211606843 2.36430325522e-06 0)
(0.000129535316145 2.31196596861e-06 0)
(0.00012498225377 2.2410756613e-06 0)
(0.000120585443029 2.1557151629e-06 0)
(0.000116369945701 2.05976315122e-06 0)
(0.00011235342011 1.95674437575e-06 0)
(0.000108546925909 1.84973273842e-06 0)
(0.000104955871232 1.74130583432e-06 0)
(0.000101581007569 1.63354270444e-06 0)
(9.84193971277e-05 1.52805357323e-06 0)
(9.54653005202e-05 1.42602980607e-06 0)
(9.2710954361e-05 1.32830402741e-06 0)
(9.01472263522e-05 1.23541252262e-06 0)
(8.77641484855e-05 1.14765471193e-06 0)
(8.55513374438e-05 1.06514648467e-06 0)
(8.34983158376e-05 9.87866021205e-07 0)
(8.15947496875e-05 9.15691733356e-07 0)
(7.98306173911e-05 8.4843283107e-07 0)
(7.81963241891e-05 7.85853264024e-07 0)
(7.66827743167e-05 7.27690087721e-07 0)
(7.52814110834e-05 6.73667174571e-07 0)
(7.39842331988e-05 6.2350525271e-07 0)
(7.27837939572e-05 5.76929010994e-07 0)
(7.16731884016e-05 5.33672012608e-07 0)
(7.06460323562e-05 4.93479914992e-07 0)
(6.96964361961e-05 4.56112510185e-07 0)
(6.88189754138e-05 4.21344890795e-07 0)
(6.80086593727e-05 3.88968093887e-07 0)
(6.72608991139e-05 3.58789406311e-07 0)
(6.65714746275e-05 3.30632593234e-07 0)
(6.59365016152e-05 3.04338179762e-07 0)
(6.53523973957e-05 2.79764024399e-07 0)
(6.48158452292e-05 2.56786329472e-07 0)
(6.4323755888e-05 2.35301381418e-07 0)
(6.38732247659e-05 2.15228274525e-07 0)
(6.34614820827e-05 1.96513089613e-07 0)
(6.30858327388e-05 1.79135067392e-07 0)
(6.27435809054e-05 1.63115697812e-07 0)
(6.24319322621e-05 1.48531984956e-07 0)
(6.21478634337e-05 1.35535981557e-07 0)
(6.18879428685e-05 1.24383814317e-07 0)
(6.164807873e-05 1.15479644464e-07 0)
(6.14231549222e-05 1.09443574982e-07 0)
(6.12064920273e-05 1.07218829479e-07 0)
(6.09890298561e-05 1.10242960794e-07 0)
(6.07580691367e-05 1.20717501309e-07 0)
(6.04953566703e-05 1.41994842209e-07 0)
(6.01744695363e-05 1.78892305328e-07 0)
(5.97588920394e-05 2.36685360719e-07 0)
(5.92185620174e-05 3.03644942281e-07 0)
(0.00121019622939 0.000302834160569 0)
(0.00116038552009 0.000315158140763 0)
(0.00102704172531 0.000238116674947 0)
(0.000887607423909 0.000171831504155 0)
(0.000766895223515 0.000124591854369 0)
(0.000668382739788 9.21212303892e-05 0)
(0.000589374281036 6.96950242856e-05 0)
(0.000526053649284 5.39038900533e-05 0)
(0.000474992825642 4.25120876697e-05 0)
(0.000433463783199 3.40871553212e-05 0)
(0.000399385986723 2.77081184177e-05 0)
(0.000371192383789 2.27737601921e-05 0)
(0.000347701290487 1.88834426202e-05 0)
(0.000328014809005 1.57640743719e-05 0)
(0.00031144351876 1.32251895948e-05 0)
(0.000297452057838 1.11309660455e-05 0)
(0.000285620068482 9.38249370192e-06 0)
(0.000275614094548 7.90632071817e-06 0)
(0.000267167204248 6.64690553153e-06 0)
(0.000260064062557 5.56154361905e-06 0)
(0.000254129870432 4.61689150395e-06 0)
(0.000249222072482 3.78654103303e-06 0)
(0.000245224068095 3.04929685799e-06 0)
(0.000242040389217 2.38793299972e-06 0)
(0.000239592964544 1.78828127621e-06 0)
(0.000237818197922 1.23855332512e-06 0)
(0.00023666466376 7.28829633099e-07 0)
(0.000236091274838 2.50669856414e-07 0)
(0.000236065814905 -2.03187283357e-07 0)
(0.000236563754458 -6.39056018124e-07 0)
(0.000237567286641 -1.06248329057e-06 0)
(0.00023906453459 -1.47838952018e-06 0)
(0.000241048890766 -1.89117596493e-06 0)
(0.000243518454174 -2.30480317333e-06 0)
(0.000246475535337 -2.7228437633e-06 0)
(0.000249926201067 -3.14851083487e-06 0)
(0.000253879831553 -3.5846617879e-06 0)
(0.000258348661357 -4.03377597821e-06 0)
(0.000263347273762 -4.49790350441e-06 0)
(0.000268892014854 -4.97858144043e-06 0)
(0.00027500028998 -5.47671319344e-06 0)
(0.000281689701417 -5.99240650812e-06 0)
(0.000288976982857 -6.52476635607e-06 0)
(0.000296876684995 -7.07164090642e-06 0)
(0.000305399568624 -7.62932262553e-06 0)
(0.000314550669406 -8.19221282383e-06 0)
(0.000324327014654 -8.75246730602e-06 0)
(0.000334714999837 -9.29965329194e-06 0)
(0.000345687473726 -9.82046310417e-06 0)
(0.000357200637582 -1.0298546514e-05 0)
(0.000369190934268 -1.07145380968e-05 0)
(0.000381572182707 -1.1046363588e-05 0)
(0.000394233291506 -1.12699044831e-05 0)
(0.000407036947593 -1.13600774942e-05 0)
(0.000419819702362 -1.12923422501e-05 0)
(0.000432393849894 -1.10445879113e-05 0)
(0.000444551394064 -1.05992733468e-05 0)
(0.000456070226824 -9.94561543943e-06 0)
(0.000466722392801 -9.08154807058e-06 0)
(0.000476284013818 -8.01512572369e-06 0)
(0.000484546127695 -6.76504396843e-06 0)
(0.000491325419823 -5.36002463253e-06 0)
(0.000496473677603 -3.83698975066e-06 0)
(0.000499884862731 -2.23821071799e-06 0)
(0.00050149901695 -6.07892741228e-07 0)
(0.000501302745882 1.01117818312e-06 0)
(0.000499326621216 2.58031987499e-06 0)
(0.000495640315399 4.06659859595e-06 0)
(0.000490346480018 5.44342332311e-06 0)
(0.000483574290301 6.69031799588e-06 0)
(0.000475473297677 7.79225180615e-06 0)
(0.000466207879 8.73890137863e-06 0)
(0.00045595227382 9.52409369893e-06 0)
(0.000444886036174 1.01455132847e-05 0)
(0.000433189706197 1.06046141292e-05 0)
(0.000421040593266 1.09065940939e-05 0)
(0.000408608697351 1.10602748382e-05 0)
(0.000396052919955 1.10777723016e-05 0)
(0.00038351778842 1.0973916026e-05 0)
(0.000371130919332 1.07654528597e-05 0)
(0.00035900138509 1.04701275881e-05 0)
(0.00034721904643 1.01057573939e-05 0)
(0.000335854804148 9.68940800351e-06 0)
(0.000324961632102 9.23674743896e-06 0)
(0.000314576197014 8.7616120863e-06 0)
(0.000304720851801 8.27578232869e-06 0)
(0.000295405802208 7.78893821034e-06 0)
(0.000286631280182 7.30875199614e-06 0)
(0.000278389600527 6.84107173525e-06 0)
(0.000270667020543 6.39015485223e-06 0)
(0.000263445360026 5.95891924456e-06 0)
(0.000256703368283 5.54918890965e-06 0)
(0.000250417845505 5.16191958739e-06 0)
(0.000244564538724 4.79739683632e-06 0)
(0.000239118839431 4.4554038255e-06 0)
(0.000234056312284 4.13535946284e-06 0)
(0.000229353083795 3.83642931077e-06 0)
(0.000224986117545 3.55761275029e-06 0)
(0.000220933399306 3.29781006541e-06 0)
(0.000217174051953 3.05587307509e-06 0)
(0.000213688396614 2.83064254418e-06 0)
(0.000210457973382 2.620975247e-06 0)
(0.000207465532146 2.42576305987e-06 0)
(0.00020469500169 2.24394610984e-06 0)
(0.000202131443243 2.07452159673e-06 0)
(0.000199760992951 1.91654966775e-06 0)
(0.000197570796337 1.76915744624e-06 0)
(0.000195548936637 1.63154220512e-06 0)
(0.000193684357808 1.50297453036e-06 0)
(0.000191966782082 1.38280233506e-06 0)
(0.000190386620942 1.27045657526e-06 0)
(0.000188934877471 1.16545967802e-06 0)
(0.000187603036877 1.06743785741e-06 0)
(0.00018638294075 9.76138866984e-07 0)
(0.000185266639094 8.91457190205e-07 0)
(0.00018424621228 8.13469437813e-07 0)
(0.000183313552936 7.42483739068e-07 0)
(0.00018246009528 6.79108490447e-07 0)
(0.000181676477205 6.24347988216e-07 0)
(0.000180952119592 5.7973553015e-07 0)
(0.000180274711541 5.47518138273e-07 0)
(0.000179629608257 5.30909346001e-07 0)
(0.000178999203116 5.3441900875e-07 0)
(0.000178362484472 5.6422046609e-07 0)
(0.000177695382262 6.28306632905e-07 0)
(0.000176973498345 7.3535202875e-07 0)
(0.000176181778258 8.87523931262e-07 0)
(0.000175334312171 1.04060322342e-06 0)
(0.00122478473661 0.000267853188897 0)
(0.00124106168274 0.000383672857984 0)
(0.00119605489297 0.000347952518517 0)
(0.00111308590695 0.000284398924253 0)
(0.00101977364379 0.000226048873695 0)
(0.000929825128036 0.00017912518592 0)
(0.000848679909421 0.000142844721261 0)
(0.000777741665741 0.000115013043606 0)
(0.000716650390315 9.35550083693e-05 0)
(0.000664387482069 7.68361606791e-05 0)
(0.000619779607487 6.36447597353e-05 0)
(0.000581710091803 5.31002134169e-05 0)
(0.00054919403414 4.45641166377e-05 0)
(0.000521393093224 3.75707994314e-05 0)
(0.00049760578723 3.17770379027e-05 0)
(0.000477249656535 2.69266869883e-05 0)
(0.000459842364288 2.2826032556e-05 0)
(0.000444984501315 1.93265975887e-05 0)
(0.000432344927856 1.63130719291e-05 0)
(0.00042164866722 1.36947598188e-05 0)
(0.00041266706196 1.13994538005e-05 0)
(0.000405209825431 9.36899524757e-06 0)
(0.000399118636962 7.55601853932e-06 0)
(0.000394261976553 5.92153474591e-06 0)
(0.000390530948691 4.43311740011e-06 0)
(0.000387835893981 3.06352516841e-06 0)
(0.00038610362855 1.78964542251e-06 0)
(0.000385275184435 5.91676664051e-07 0)
(0.000385303950099 -5.47508627591e-07 0)
(0.000386154129616 -1.64286079139e-06 0)
(0.000387799454476 -2.70754072272e-06 0)
(0.000390222094471 -3.75322317726e-06 0)
(0.000393411721317 -4.79032632504e-06 0)
(0.000397364683251 -5.82817686202e-06 0)
(0.000402083252412 -6.87511668027e-06 0)
(0.000407574908304 -7.93855325557e-06 0)
(0.000413851620348 -9.02495291624e-06 0)
(0.00042092909096 -1.01397734582e-05 0)
(0.000428825917732 -1.12873304488e-05 0)
(0.000437562629724 -1.24705897775e-05 0)
(0.000447160548884 -1.36908782097e-05 0)
(0.000457640424028 -1.49475039542e-05 0)
(0.000469020782675 -1.62372816696e-05 0)
(0.000481315946851 -1.75539613917e-05 0)
(0.000494533664872 -1.88875701561e-05 0)
(0.000508672324718 -2.02236892913e-05 0)
(0.000523717739022 -2.154271095e-05 0)
(0.000539639530257 -2.28191440557e-05 0)
(0.000556387200068 -2.40210717708e-05 0)
(0.000573886040084 -2.51098955565e-05 0)
(0.000592033130775 -2.60405287984e-05 0)
(0.000610693773314 -2.67622152391e-05 0)
(0.000629698793789 -2.72201330232e-05 0)
(0.000648843230238 -2.73578925389e-05 0)
(0.000667886937161 -2.71209407407e-05 0)
(0.000686557595828 -2.64607490062e-05 0)
(0.000704556483893 -2.53395002775e-05 0)
(0.000721567127994 -2.37348245533e-05 0)
(0.000737266645661 -2.16439863054e-05 0)
(0.000751339201804 -1.90868341255e-05 0)
(0.000763490604637 -1.61068288545e-05 0)
(0.000773462718835 -1.27696310647e-05 0)
(0.000781046183109 -9.15909997076e-06 0)
(0.00078608999641 -5.37110405325e-06 0)
(0.000788506942595 -1.5061160062e-06 0)
(0.000788274503097 2.33808467042e-06 0)
(0.000785431677399 6.07232565702e-06 0)
(0.000780072744316 9.6197836835e-06 0)
(0.000772339256483 1.29175046153e-05 0)
(0.000762411451701 1.59161668889e-05 0)
(0.000750499909791 1.85788670579e-05 0)
(0.000736837842537 2.0879696992e-05 0)
(0.000721674037295 2.28026301055e-05 0)
(0.000705266273721 2.43408976054e-05 0)
(0.000687875008819 2.54967432447e-05 0)
(0.000669757231415 2.62812739327e-05 0)
(0.000651160550452 2.67140914491e-05 0)
(0.000632317730322 2.68224744859e-05 0)
(0.000613441969581 2.66400297009e-05 0)
(0.000594723214944 2.62048892828e-05 0)
(0.000576325719263 2.55576506134e-05 0)
(0.000558386920569 2.47393046442e-05 0)
(0.000541017578451 2.37893816262e-05 0)
(0.000524302987393 2.27444770135e-05 0)
(0.000508305013945 2.16372347695e-05 0)
(0.00049306467949 2.0495786617e-05 0)
(0.000478605025167 1.93435886401e-05 0)
(0.000464934036548 1.81995663955e-05 0)
(0.000452047458932 1.70784720388e-05 0)
(0.000439931388454 1.59913655389e-05 0)
(0.000428564572378 1.49461486224e-05 0)
(0.000417920390439 1.39480994666e-05 0)
(0.000407968517236 1.30003738887e-05 0)
(0.000398676284265 1.21044536344e-05 0)
(0.00039000977107 1.12605331817e-05 0)
(0.000381934660032 1.0467844131e-05 0)
(0.000374416890269 9.72492076936e-06 0)
(0.000367423144515 9.02981307143e-06 0)
(0.000360921199724 8.38025432394e-06 0)
(0.000354880168291 7.77379080083e-06 0)
(0.000349270652838 7.20788034386e-06 0)
(0.000344064833569 6.67996610087e-06 0)
(0.000339236503747 6.18753073031e-06 0)
(0.000334761065632 5.728135685e-06 0)
(0.000330615496544 5.29944934036e-06 0)
(0.000326778292341 4.89926721712e-06 0)
(0.000323229393636 4.52552693771e-06 0)
(0.000319950098326 4.1763202857e-06 0)
(0.000316922962543 3.84990438253e-06 0)
(0.000314131690784 3.54471397211e-06 0)
(0.00031156101478 3.25937670123e-06 0)
(0.000309196559461 2.99273351082e-06 0)
(0.000307024693325 2.74386641757e-06 0)
(0.000305032359391 2.51213647214e-06 0)
(0.000303206881993 2.29723514166e-06 0)
(0.000301535744002 2.09925315585e-06 0)
(0.00030000632904 1.91877152582e-06 0)
(0.000298605624751 1.75698016569e-06 0)
(0.000297319887583 1.61582938658e-06 0)
(0.000296134280045 1.49821744037e-06 0)
(0.000295032513554 1.40820928509e-06 0)
(0.000293996575008 1.35125894658e-06 0)
(0.000293006703329 1.33434560348e-06 0)
(0.000292041949847 1.36576588981e-06 0)
(0.000291081953871 1.45385987353e-06 0)
(0.000290111040987 1.60259657269e-06 0)
(0.000289125539742 1.79750191439e-06 0)
(0.00028813927609 1.96435600116e-06 0)
(0.00122190477761 0.00022116366884 0)
(0.0012532617591 0.00038272843202 0)
(0.00125070566679 0.000396459801706 0)
(0.00121266354626 0.00035690272297 0)
(0.00115416148163 0.000305359377816 0)
(0.00108761115547 0.000256313498303 0)
(0.00102049602304 0.000213916734268 0)
(0.000956786633205 0.00017858863841 0)
(0.000898316864988 0.00014954043155 0)
(0.000845713769497 0.000125716715708 0)
(0.000798962072457 0.00010612375099 0)
(0.000757730234933 8.99225502666e-05 0)
(0.000721552313333 7.64357342236e-05 0)
(0.000689925849784 6.51265618022e-05 0)
(0.000662362043039 5.55723641252e-05 0)
(0.000638409364221 4.74401465431e-05 0)
(0.000617662745196 4.04664609978e-05 0)
(0.000599765191594 3.44415629609e-05 0)
(0.000584405638967 2.91972104557e-05 0)
(0.000571315144325 2.45973550185e-05 0)
(0.000560262531511 2.05310558256e-05 0)
(0.000551050064529 1.69070766568e-05 0)
(0.000543509422376 1.36497485228e-05 0)
(0.000537498085908 1.06957833355e-05 0)
(0.00053289616132 7.99180396462e-06 0)
(0.000529603621681 5.4924167552e-06 0)
(0.000527537928193 3.15869774516e-06 0)
(0.000526631985442 9.56997485488e-07 0)
(0.000526832383852 -1.14200585578e-06 0)
(0.000528097883132 -3.16405319713e-06 0)
(0.000530398094577 -5.13189385188e-06 0)
(0.000533712324132 -7.06574710183e-06 0)
(0.000538028538018 -8.98364879014e-06 0)
(0.000543342413749 -1.09016957466e-05 0)
(0.000549656440301 -1.28341950938e-05 0)
(0.000556979030328 -1.47937201132e-05 0)
(0.000565323605438 -1.67910702026e-05 0)
(0.00057470761273 -1.88351285746e-05 0)
(0.000585151427245 -2.09326085012e-05 0)
(0.000596677090939 -2.3087676562e-05 0)
(0.000609306834865 -2.53014408298e-05 0)
(0.000623061328086 -2.75712931051e-05 0)
(0.000637957595722 -2.9890099241e-05 0)
(0.000654006551007 -3.2245240732e-05 0)
(0.000671210094515 -3.46175268264e-05 0)
(0.000689557750597 -3.6980020129e-05 0)
(0.000709022839868 -3.9296852486e-05 0)
(0.000729558230701 -4.15221507779e-05 0)
(0.000751091775166 -4.35992431403e-05 0)
(0.00077352161697 -4.54603677361e-05 0)
(0.000796711658739 -4.7027149066e-05 0)
(0.000820487586128 -4.82121235429e-05 0)
(0.000844633952416 -4.89215692374e-05 0)
(0.000868892907667 -4.90598054006e-05 0)
(0.000892965183892 -4.85349686129e-05 0)
(0.000916513894545 -4.72660489298e-05 0)
(0.00093917155255 -4.51907065872e-05 0)
(0.000960550448987 -4.22731215697e-05 0)
(0.000980256173443 -3.8510897914e-05 0)
(0.000997903621585 -3.3939898248e-05 0)
(0.00101313436963 -2.86358933236e-05 0)
(0.0010256338749 -2.27121713895e-05 0)
(0.0010351467071 -1.63128502698e-05 0)
(0.00104148807219 -9.60253609887e-06 0)
(0.00104455035914 -2.75393142989e-06 0)
(0.00104430426743 4.06440647175e-06 0)
(0.00104079502859 1.06980334481e-05 0)
(0.00103413498996 1.70130033306e-05 0)
(0.00102449413392 2.2898576351e-05 0)
(0.00101208994612 2.82670283383e-05 0)
(0.000997177588606 3.30518400899e-05 0)
(0.000980040792494 3.72055181705e-05 0)
(0.000960983454789 4.0697879785e-05 0)
(0.000940321705837 4.35150866067e-05 0)
(0.000918376208794 4.56592416622e-05 0)
(0.00089546459582 4.7148091639e-05 0)
(0.000871894147733 4.80143296444e-05 0)
(0.000847955000096 4.83041327104e-05 0)
(0.000823914250845 4.80748124881e-05 0)
(0.000800011329645 4.73917161519e-05 0)
(0.00077645488032 4.63247056872e-05 0)
(0.000753421244059 4.49446247818e-05 0)
(0.00073105446072 4.33201306374e-05 0)
(0.000709467568161 4.1515158784e-05 0)
(0.000688744896814 3.9587148405e-05 0)
(0.000668945030947 3.75860272901e-05 0)
(0.000650104128092 3.5553862398e-05 0)
(0.00063223933724 3.35250324925e-05 0)
(0.00061535211812 3.15267660428e-05 0)
(0.000599431325807 2.95799005095e-05 0)
(0.000584455979424 2.7699744951e-05 0)
(0.000570397677213 2.5896958618e-05 0)
(0.0005572226523 2.41783865162e-05 0)
(0.000544893485065 2.25478170562e-05 0)
(0.000533370501202 2.10066446945e-05 0)
(0.000522612891215 1.95544334136e-05 0)
(0.000512579589258 1.81893847423e-05 0)
(0.000503229948315 1.69087189713e-05 0)
(0.000494524246045 1.57089801869e-05 0)
(0.000486424051923 1.45862766061e-05 0)
(0.000478892482276 1.3536467062e-05 0)
(0.000471894365763 1.25553037957e-05 0)
(0.00046539633806 1.16385403043e-05 0)
(0.000459366881037 1.07820120148e-05 0)
(0.000453776318655 9.98169618233e-06 0)
(0.000448596779146 9.23375663916e-06 0)
(0.000443802130726 8.53457796618e-06 0)
(0.000439367896092 7.88079322615e-06 0)
(0.000435271149259 7.26930871318e-06 0)
(0.000431490396795 6.69732908231e-06 0)
(0.000428005444233 6.16238588093e-06 0)
(0.000424797247338 5.66237271695e-06 0)
(0.000421847747026 5.19559023299e-06 0)
(0.000419139686076 4.76080447135e-06 0)
(0.000416656405635 4.35732223068e-06 0)
(0.000414381619982 3.98508725178e-06 0)
(0.000412299169783 3.64480039964e-06 0)
(0.000410392757917 3.3380655142e-06 0)
(0.000408645679357 3.06755808969e-06 0)
(0.000407040569998 2.83720423518e-06 0)
(0.000405559222433 2.65233545933e-06 0)
(0.000404182555164 2.51973786687e-06 0)
(0.000402890882313 2.44741092424e-06 0)
(0.000401664716666 2.44361990262e-06 0)
(0.000400486426329 2.51429292071e-06 0)
(0.000399342963476 2.65654045288e-06 0)
(0.000398228706493 2.84331761775e-06 0)
(0.000397141959677 2.9915519057e-06 0)
(0.00121688412531 0.000182374759627 0)
(0.00124885326896 0.000358191196454 0)
(0.00126508276487 0.000407323607303 0)
(0.00125476904318 0.000394394733537 0)
(0.00122369863394 0.000357439814795 0)
(0.0011801931479 0.000314288846738 0)
(0.00113081342961 0.000272436209513 0)
(0.0010799445209 0.000234647434593 0)
(0.00103028197685 0.000201613920527 0)
(0.000983362924335 0.000173165347715 0)
(0.000939974425924 0.000148815287538 0)
(0.000900435998271 0.000128001252167 0)
(0.000864786144912 0.000110184780757 0)
(0.000832902253227 9.48878442183e-05 0)
(0.0008045761468 8.17009688764e-05 0)
(0.00077956079949 7.02795422345e-05 0)
(0.000757598571909 6.03358865908e-05 0)
(0.000738437744191 5.16304937767e-05 0)
(0.000721841716199 4.39638358102e-05 0)
(0.00070759367114 3.71692454298e-05 0)
(0.000695498478975 3.11069470297e-05 0)
(0.000685382961214 2.56591474643e-05 0)
(0.000677095220319 2.07260387249e-05 0)
(0.000670503470476 1.62225581669e-05 0)
(0.000665494637214 1.20757665378e-05 0)
(0.000661972886044 8.22272545131e-06 0)
(0.0006598581723 4.60877772773e-06 0)
(0.000659084861351 1.18615371853e-06 0)
(0.000659600441224 -2.08715669772e-06 0)
(0.000661364330485 -5.24830596905e-06 0)
(0.000664346776165 -8.33031192581e-06 0)
(0.000668527829702 -1.13626243844e-05 0)
(0.000673896379583 -1.43715459707e-05 0)
(0.000680449216392 -1.73805201152e-05 0)
(0.000688190102948 -2.04102910341e-05 0)
(0.00069712881826 -2.34789347751e-05 0)
(0.000707280139945 -2.66017555277e-05 0)
(0.000718662725472 -2.97910370555e-05 0)
(0.000731297847998 -3.3055635705e-05 0)
(0.000745207937955 -3.6400399176e-05 0)
(0.000760414877322 -3.9825395073e-05 0)
(0.000776937990421 -4.33249360269e-05 0)
(0.000794791674135 -4.68863956982e-05 0)
(0.000813982613344 -5.04888239108e-05 0)
(0.000834506536152 -5.41013921765e-05 0)
(0.000856344481004 -5.7681734997e-05 0)
(0.000879458577478 -6.11742997635e-05 0)
(0.000903787388137 -6.45088786046e-05 0)
(0.000929240923929 -6.75995665426e-05 0)
(0.000955695532385 -7.03444631313e-05 0)
(0.000982988965263 -7.26264946807e-05 0)
(0.00101091605365 -7.43157582061e-05 0)
(0.00103922553921 -7.52737494521e-05 0)
(0.00106761870642 -7.53597096297e-05 0)
(0.00109575050053 -7.44390961902e-05 0)
(0.00112323376791 -7.23938609775e-05 0)
(0.00114964709357 -6.91338406756e-05 0)
(0.00117454642766 -6.46081822946e-05 0)
(0.00119748029752 -5.88153987149e-05 0)
(0.00121800791709 -5.18104365605e-05 0)
(0.00123571896893 -4.37071318971e-05 0)
(0.00125025331807 -3.46747712854e-05 0)
(0.00126131856016 -2.49283171031e-05 0)
(0.00126870330963 -1.47131857452e-05 0)
(0.00127228466057 -4.2869317333e-06 0)
(0.00127202927049 6.09886619706e-06 0)
(0.00126798872138 1.62133293945e-05 0)
(0.00126029075181 2.58556741872e-05 0)
(0.00124912829816 3.48591658613e-05 0)
(0.00123474802536 4.30908435196e-05 0)
(0.001217439409 5.04489376511e-05 0)
(0.00119752474639 5.68598143254e-05 0)
(0.00117534996663 6.22756334589e-05 0)
(0.00115127588475 6.66730946579e-05 0)
(0.0011256695817 7.0052964147e-05 0)
(0.00109889579937 7.24396953932e-05 0)
(0.0010713085016 7.388040397e-05 0)
(0.00104324296989 7.44426719071e-05 0)
(0.00101500890792 7.42110211752e-05 0)
(0.000986885000279 7.3282275845e-05 0)
(0.0009591152282 7.17603101087e-05 0)
(0.000931907040166 6.97507907015e-05 0)
(0.000905431269739 6.73564679441e-05 0)
(0.00087982353358 6.46734030751e-05 0)
(0.000855186753158 6.17883121233e-05 0)
(0.00083159442232 5.8777019779e-05 0)
(0.000809094273328 5.57038843831e-05 0)
(0.000787712054617 5.26219856642e-05 0)
(0.000767455205101 4.95738498975e-05 0)
(0.000748316279016 4.65925060613e-05 0)
(0.0007302760344 4.37027038483e-05 0)
(0.00071330614458 4.09221674674e-05 0)
(0.000697371525599 3.82627993811e-05 0)
(0.000682432294974 3.57317818172e-05 0)
(0.000668445390926 3.3332549412e-05 0)
(0.000655365888278 3.10656245624e-05 0)
(0.00064314804978 2.89293188191e-05 0)
(0.000631746151025 2.69203107855e-05 0)
(0.000621115114696 2.50341144784e-05 0)
(0.000611210986408 2.32654534414e-05 0)
(0.000601991280504 2.16085556098e-05 0)
(0.000593415220172 2.0057382951e-05 0)
(0.000585443892446 1.86058083752e-05 0)
(0.000578040335166 1.72477509042e-05 0)
(0.000571169569792 1.59772784875e-05 0)
(0.000564798591237 1.47886865461e-05 0)
(0.000558896323424 1.36765590802e-05 0)
(0.000553433547248 1.2635818285e-05 0)
(0.000548382805798 1.16617678141e-05 0)
(0.000543718290218 1.07501343596e-05 0)
(0.000539415708328 9.89711179697e-06 0)
(0.00053545213713 9.09941199132e-06 0)
(0.000531805859659 8.35432615886e-06 0)
(0.000528456186267 7.65980058429e-06 0)
(0.000525383260703 7.0145300682e-06 0)
(0.000522567852274 6.41807166897e-06 0)
(0.000519991137557 5.87097928113e-06 0)
(0.000517634479073 5.37495556999e-06 0)
(0.000515479214893 4.9330095709e-06 0)
(0.000513506483593 4.54959244145e-06 0)
(0.00051169712464 4.23065307423e-06 0)
(0.00051003171611 3.98349569419e-06 0)
(0.000508490837811 3.81620431406e-06 0)
(0.000507055665 3.73616554061e-06 0)
(0.000505708949868 3.7467538381e-06 0)
(0.000504436131532 3.84036215409e-06 0)
(0.000503225089765 3.98479612119e-06 0)
(0.000502060280518 4.10163063099e-06 0)
(0.00121277772365 0.000152712903845 0)
(0.00124141209585 0.000327249515466 0)
(0.00126504253746 0.000398405322958 0)
(0.00127076027318 0.000407908976414 0)
(0.00125883966142 0.000386916565235 0)
(0.00123393384301 0.000353223372587 0)
(0.00120088923506 0.000315925981517 0)
(0.00116354614893 0.000279369628934 0)
(0.00112464585342 0.000245454537256 0)
(0.00108603297615 0.000214856632337 0)
(0.00104888919102 0.00018765625812 0)
(0.00101392853318 0.000163659338849 0)
(0.000981544742204 0.000142560310346 0)
(0.000951917484733 0.0001240234359 0)
(0.000925087075957 0.000107721864731 0)
(0.000901006208334 9.33548338978e-05 0)
(0.000879575312193 8.06536915259e-05 0)
(0.000860666435266 6.93823666972e-05 0)
(0.000844139148983 5.93352507524e-05 0)
(0.00082985095994 5.03340386011e-05 0)
(0.000817663960347 4.22243201028e-05 0)
(0.000807448922218 3.48723052948e-05 0)
(0.000799087668187 2.81618514157e-05 0)
(0.00079247429223 2.19918475125e-05 0)
(0.000787515623074 1.62739565506e-05 0)
(0.000784131197794 1.09306895982e-05 0)
(0.000782252926228 5.89377744328e-06 0)
(0.000781824566325 1.10280432339e-06 0)
(0.000782801088331 -3.49592871398e-06 0)
(0.000785147973981 -7.95032731003e-06 0)
(0.000788840481003 -1.23032605529e-05 0)
(0.000793862886658 -1.65931509344e-05 0)
(0.000800207707311 -2.08544045494e-05 0)
(0.000807874885662 -2.51176897827e-05 0)
(0.000816870929945 -2.94100636585e-05 0)
(0.000827207982611 -3.37549398109e-05 0)
(0.00083890278989 -3.81718872244e-05 0)
(0.000851975537772 -4.26762444723e-05 0)
(0.000866448514254 -4.72785307777e-05 0)
(0.000882344552264 -5.19836331684e-05 0)
(0.000899685202838 -5.67897495771e-05 0)
(0.000918488584388 -6.16870720294e-05 0)
(0.000938766852333 -6.66562043739e-05 0)
(0.000960523235301 -7.16663274705e-05 0)
(0.000983748591629 -7.66731547573e-05 0)
(0.00100841745582 -8.16167653529e-05 0)
(0.00103448357245 -8.6419463286e-05 0)
(0.0010618749592 -9.09838901758e-05 0)
(0.00109048860551 -9.51917117773e-05 0)
(0.00112018500293 -9.89032956622e-05 0)
(0.00115078281774 -0.000101958879107 0)
(0.00118205415128 -0.00010418176266 0)
(0.00121372097466 -0.000105384018926 0)
(0.00124545344462 -0.000105375040756 0)
(0.0012768708716 -0.000103972948542 0)
(0.00130754607764 -0.00010101844403 0)
(0.00133701372085 -9.63901888289e-05 0)
(0.0013647828633 -9.00202743341e-05 0)
(0.00139035363176 -8.19079111196e-05 0)
(0.00141323728484 -7.21291667675e-05 0)
(0.00143297838122 -6.08405252383e-05 0)
(0.00144917709956 -4.82744277126e-05 0)
(0.00146150924949 -3.47260434438e-05 0)
(0.00146974141311 -2.05323729434e-05 0)
(0.00147373924233 -6.04693560105e-06 0)
(0.00147346821702 8.38526391317e-06 0)
(0.00146898773197 2.24479340892e-05 0)
(0.00146044057937 3.5866150644e-05 0)
(0.00144804027181 4.84114016545e-05 0)
(0.00143205822902 5.9900867854e-05 0)
(0.00141281198684 7.01937113496e-05 0)
(0.00139065469998 7.9186925954e-05 0)
(0.00136596560328 8.6812331756e-05 0)
(0.00133914087383 9.30351399436e-05 0)
(0.0013105844437 9.78535840819e-05 0)
(0.00128069861591 0.000101298618356 0)
(0.00124987468538 0.000103432643619 0)
(0.00121848404267 0.000104346543169 0)
(0.00118687036385 0.000104154829902 0)
(0.00115534344223 0.000102989238658 0)
(0.00112417502901 0.000100991478226 0)
(0.00109359679012 9.83059986262e-05 0)
(0.00106380023539 9.507353784e-05 0)
(0.00103493829173 9.14259691749e-05 0)
(0.00100712809829 8.74826794808e-05 0)
(0.000980454590443 8.33484540134e-05 0)
(0.000954974486405 7.91126692141e-05 0)
(0.000930720367682 7.48495072503e-05 0)
(0.000907704628331 7.06188889117e-05 0)
(0.000885923145488 6.64678502588e-05 0)
(0.000865358586634 6.24321397557e-05 0)
(0.000845983316757 5.85378700526e-05 0)
(0.000827761901912 5.48031114032e-05 0)
(0.000810653227418 5.12393575097e-05 0)