/*--------------------------------*- C++ -*----------------------------------*\
  =========                 |
  \\      /  F ield         | OpenFOAM: The Open Source CFD Toolbox
   \\    /   O peration     | Website:  https://openfoam.org
    \\  /    A nd           | Version:  7
     \\/     M anipulation  |
\*---------------------------------------------------------------------------*/
FoamFile
{
    version     2.0;
    format      ascii;
    class       volVectorField;
    location    "1.499904e+08";
    object      U;
}
// * * * * * * * * * * * * * * * * * * * * * * * * * * * * * * * * * * * * * //

dimensions      [0 1 -1 0 0 0 0];

internalField   nonuniform List<vector> 
80
(
(4.24146e-07 0 0)
(4.24146e-07 0 0)
(4.24146e-07 0 0)
(4.24146e-07 0 0)
(4.24146e-07 0 0)
(4.24146e-07 0 0)
(4.24146e-07 0 0)
(4.24146e-07 0 0)
(4.24146e-07 0 0)
(4.24146e-07 0 0)
(4.24146e-07 0 0)
(4.24146e-07 0 0)
(4.24146e-07 0 0)
(4.24146e-07 0 0)
(4.24146e-07 0 0)
(4.24146e-07 0 0)
(4.24146e-07 0 0)
(4.24146e-07 0 0)
(4.24146e-07 0 0)
(4.24146e-07 0 0)
(4.24146e-07 0 0)
(4.24146e-07 0 0)
(4.24146e-07 0 0)
(4.24146e-07 0 0)
(4.24146e-07 0 0)
(4.24146e-07 0 0)
(4.24146e-07 0 0)
(4.24146e-07 0 0)
(4.24146e-07 0 0)
(4.24146e-07 0 0)
(4.24146e-07 0 0)
(4.24146e-07 0 0)
(4.24146e-07 0 0)
(4.24146e-07 0 0)
(4.24146e-07 0 0)
(4.24146e-07 0 0)
(4.24146e-07 0 0)
(4.24146e-07 0 0)
(4.24146e-07 0 0)
(4.24146e-07 0 0)
(4.24146e-07 0 0)
(4.24146e-07 0 0)
(4.24146e-07 0 0)
(4.24146e-07 0 0)
(4.24146e-07 0 0)
(4.24146e-07 0 0)
(4.24146e-07 0 0)
(4.24146e-07 0 0)
(4.24146e-07 0 0)
(4.24146e-07 0 0)
(4.24146e-07 0 0)
(4.24146e-07 0 0)
(4.24146e-07 0 0)
(4.24146e-07 0 0)
(4.24146e-07 0 0)
(4.24146e-07 0 0)
(4.24146e-07 0 0)
(4.24146e-07 0 0)
(4.24146e-07 0 0)
(4.24146e-07 0 0)
(4.24146e-07 0 0)
(4.24146e-07 0 0)
(4.24146e-07 0 0)
(4.24146e-07 0 0)
(4.24146e-07 0 0)
(4.24146e-07 0 0)
(4.24146e-07 0 0)
(4.24146e-07 0 0)
(4.24146e-07 0 0)
(4.24146e-07 0 0)
(4.24146e-07 0 0)
(4.24146e-07 0 0)
(4.24146e-07 0 0)
(4.24146e-07 0 0)
(4.24146e-07 0 0)
(4.24146e-07 0 0)
(4.24146e-07 0 0)
(4.24146e-07 0 0)
(4.24146e-07 0 0)
(4.24146e-07 0 0)
)
;

boundaryField
{
    outlet
    {
        type            zeroGradient;
    }
    inlet
    {
        type            zeroGradient;
    }
    frontAndBack
    {
        type            empty;
    }
}


// ************************************************************************* //
