/*--------------------------------*- C++ -*----------------------------------*\
  =========                 |
  \\      /  F ield         | OpenFOAM: The Open Source CFD Toolbox
   \\    /   O peration     | Website:  https://openfoam.org
    \\  /    A nd           | Version:  7
     \\/     M anipulation  |
\*---------------------------------------------------------------------------*/
FoamFile
{
    version     2.0;
    format      ascii;
    class       volScalarField;
    location    "2340";
    object      Ci;
}
// * * * * * * * * * * * * * * * * * * * * * * * * * * * * * * * * * * * * * //

dimensions      [0 -3 0 0 1 0 0];

internalField   nonuniform List<scalar> 
8192
(
10.0000000187
9.99999993507
9.99999981204
9.9999996552
9.99999946159
9.9999992356
9.99999898115
9.99999870135
9.99999839885
9.99999807669
9.99999773779
9.9999973855
9.99999702281
9.99999665311
9.99999627921
9.99999590445
9.9999955314
9.99999516328
9.99999480238
9.99999445171
9.99999411309
9.99999378917
9.99999348105
9.99999319065
9.999992918
9.99999266393
9.99999242695
9.99999220643
9.99999199902
9.9999918023
9.99999161086
9.99999142043
9.99999122361
9.99999101451
9.99999078427
9.99999052618
9.99999023097
9.9999898921
9.99998950127
9.99998905374
9.99998854405
9.99998797095
9.99998733353
9.99998663543
9.99998588143
9.9999850805
9.99998424315
9.99998338286
9.99998251462
9.99998165453
9.99998082002
9.99998002757
9.99997929527
9.99997863849
9.9999780751
9.99997761901
9.99997728772
9.99997709342
9.99997705243
9.99997717353
9.99997746907
9.9999779411
9.99997859438
9.99997942177
9.99998041918
9.9999815711
9.99998286634
9.99998428329
9.99998580499
9.99998740474
9.99998906025
9.99999074091
9.99999242093
9.99999406886
9.99999565896
9.99999716306
9.99999855947
9.99999982692
10.0000009507
10.0000019188
10.000002725
10.000003367
10.0000038473
10.0000041728
10.0000043533
10.0000044029
10.0000043365
10.0000041725
10.000003928
10.0000036228
10.0000032733
10.0000028979
10.0000025103
10.0000021253
10.0000017529
10.000001404
10.0000010844
10.0000008006
10.0000005546
10.0000003491
10.0000001829
10.0000000559
9.9999999647
9.99999990758
9.99999987993
9.99999987913
9.99999990032
9.99999994073
9.99999999584
10.0000000632
10.000000139
10.0000002215
10.0000003076
10.0000003963
10.0000004855
10.0000005748
10.0000006626
10.000000749
10.0000008327
10.0000009137
10.00000099
10.0000010604
10.0000011218
10.0000011721
10.0000012086
10.0000012327
10.0000012487
10.0000012585
9.99999998988
9.99999988575
9.99999977058
9.99999963866
9.99999947958
9.9999992906
9.99999907163
9.99999882432
9.99999855116
9.99999825539
9.99999794028
9.9999976094
9.999997266
9.9999969136
9.99999655524
9.9999961943
9.99999583357
9.99999547631
9.999995125
9.99999478266
9.99999445136
9.99999413376
9.99999383128
9.9999935459
9.99999327806
9.99999302872
9.99999279695
9.99999258231
9.9999923822
9.99999219449
9.9999920147
9.9999918389
9.9999916608
9.9999914749
9.99999127351
9.99999105046
9.99999079763
9.99999050873
9.99999017654
9.99998979629
9.99998936327
9.99998887582
9.99998833326
9.99998773821
9.99998709504
9.99998641102
9.99998569549
9.99998495963
9.99998421655
9.99998347963
9.99998276382
9.99998208274
9.99998145157
9.99998088287
9.99998039127
9.999979988
9.99997968706
9.99997949829
9.99997943449
9.99997950306
9.99997971368
9.99998006898
9.99998057305
9.99998122206
9.99998201362
9.99998293788
9.99998398703
9.99998514644
9.99998640344
9.99998773882
9.99998913501
9.99999056873
9.99999201859
9.99999345922
9.99999486804
9.99999622066
9.99999749651
9.99999867538
9.99999974156
10.0000006815
10.0000014863
10.0000021505
10.0000026731
10.0000030567
10.0000033076
10.0000034358
10.000003453
10.0000033741
10.000003214
10.0000029897
10.0000027167
10.0000024113
10.0000020871
10.0000017576
10.0000014337
10.0000011259
10.0000008409
10.0000005854
10.0000003624
10.000000175
10.000000023
9.99999990677
9.99999982384
9.99999977274
9.99999974979
9.99999975251
9.99999977676
9.99999981979
9.99999987762
9.99999994776
10.0000000267
10.0000001126
10.0000002027
10.0000002956
10.0000003895
10.0000004837
10.0000005769
10.0000006688
10.0000007584
10.0000008453
10.000000928
10.0000010051
10.0000010738
10.0000011319
10.0000011779
10.0000012128
10.0000012425
10.000001263
9.99999998946
9.99999988137
9.99999977504
9.99999966303
9.99999953564
9.99999938856
9.99999921896
9.99999902578
9.99999880889
9.99999856965
9.99999830971
9.99999803183
9.99999773848
9.99999743299
9.99999711804
9.99999679716
9.99999647296
9.99999614896
9.99999582757
9.9999955122
9.99999520491
9.99999490887
9.99999462561
9.99999435785
9.9999941063
9.99999387295
9.99999365741
9.99999346062
9.99999328077
9.99999311749
9.99999296738
9.99999282861
9.99999269622
9.99999256698
9.99999243465
9.99999229511
9.99999214159
9.9999919697
9.99999177312
9.99999154831
9.99999129067
9.99999099859
9.99999067047
9.99999030755
9.99998991196
9.99998948806
9.99998904173
9.99998857975
9.99998811082
9.99998764273
9.99998718549
9.9999867463
9.9999863352
9.9999859578
9.9999856237
9.99998533706
9.99998510736
9.99998493787
9.99998483824
9.99998481097
9.99998486511
9.99998500141
9.99998522682
9.99998553926
9.99998594268
9.9999864323
9.99998700924
9.99998766654
9.99998840227
9.99998920673
9.99999007393
9.9999909908
9.99999194703
9.99999292667
9.99999391601
9.99999489772
9.99999585651
9.99999677574
9.99999764075
9.99999843777
9.99999915507
9.99999978376
10.0000003169
10.0000007518
10.0000010873
10.000001327
10.0000014751
10.0000015407
10.000001532
10.0000014614
10.0000013391
10.0000011787
10.0000009904
10.0000007868
10.0000005765
10.0000003699
10.0000001732
9.99999999399
9.99999983545
9.99999970216
9.99999959474
9.99999951516
9.99999946199
9.99999943524
9.99999943216
9.99999945157
9.99999949002
9.99999954579
9.99999961534
9.9999996969
9.99999978723
9.99999988482
9.99999998697
10.0000000927
10.0000001998
10.0000003078
10.0000004153
10.000000522
10.0000006268
10.0000007295
10.0000008287
10.0000009234
10.000001011
10.0000010893
10.0000011575
10.0000012151
10.0000012743
10.0000012983
9.99999999011
9.99999988237
9.99999978005
9.99999967909
9.99999957047
9.99999945005
9.99999931496
9.99999916343
9.99999899443
9.99999880789
9.9999986042
9.99999838455
9.99999815036
9.9999979037
9.99999764663
9.99999738176
9.9999971115
9.99999683873
9.999996566
9.99999629626
9.99999603198
9.99999577603
9.99999553063
9.99999529836
9.99999508093
9.9999948804
9.99999469777
9.99999453424
9.99999438985
9.99999426473
9.99999415775
9.9999940678
9.99999399253
9.99999392957
9.99999387552
9.99999382699
9.99999377994
9.9999937305
9.99999367463
9.99999360875
9.99999352964
9.99999343486
9.99999332286
9.99999319301
9.99999304602
9.99999288327
9.99999270766
9.99999252217
9.99999233116
9.99999213817
9.99999194783
9.9999917631
9.99999158791
9.9999914241
9.99999127473
9.99999114092
9.99999102557
9.99999093005
9.99999085789
9.99999081119
9.99999079393
9.99999080828
9.99999085755
9.99999094292
9.99999106644
9.99999122833
9.99999143001
9.99999167142
9.9999919535
9.9999922753
9.99999263621
9.99999303339
9.99999346403
9.99999392306
9.99999440539
9.99999490394
9.99999541168
9.99999592007
9.99999642081
9.9999969048
9.99999736363
9.99999778911
9.9999981743
9.99999851346
9.99999880251
9.99999903932
9.99999922342
9.99999935651
9.99999944155
9.99999948347
9.99999948773
9.99999946127
9.99999941067
9.99999934344
9.99999926601
9.99999918522
9.99999910637
9.99999903487
9.9999989743
9.99999892824
9.99999889843
9.99999888666
9.99999889303
9.99999891782
9.99999895991
9.99999901854
9.99999909184
9.99999917844
9.99999927617
9.99999938347
9.99999949818
9.99999961887
9.99999974362
9.9999998713
10.0000000004
10.0000001301
10.0000002594
10.0000003878
10.0000005145
10.0000006392
10.0000007611
10.0000008791
10.000000992
10.0000010967
10.0000011947
10.000001278
10.0000013812
10.0000013825
9.99999998965
9.99999988124
9.99999978035
9.99999968399
9.99999958447
9.99999947825
9.99999936278
9.9999992365
9.99999909828
9.99999894774
9.99999878476
9.99999860984
9.99999842361
9.99999822727
9.99999802209
9.99999780989
9.99999759239
9.99999737188
9.99999715042
9.99999693055
9.9999967145
9.99999650493
9.99999630404
9.9999961144
9.99999593801
9.99999577709
9.99999563322
9.99999550802
9.99999540245
9.99999531725
9.99999525261
9.99999520816
9.99999518327
9.99999517635
9.99999518599
9.99999520956
9.999995245
9.99999528902
9.99999533924
9.99999539233
9.999995446
9.99999549752
9.99999554526
9.99999558756
9.99999562388
9.99999565372
9.99999567773
9.99999569623
9.99999571061
9.99999572129
9.99999572961
9.99999573539
9.99999573933
9.99999574042
9.99999573893
9.9999957336
9.99999572517
9.99999571324
9.99999569975
9.99999568559
9.99999567361
9.99999566498
9.99999566204
9.99999566492
9.99999567466
9.99999569052
9.99999571325
9.99999574259
9.99999577978
9.99999582503
9.99999587955
9.99999594348
9.99999601765
9.99999610197
9.9999961968
9.99999630173
9.99999641639
9.99999653971
9.99999667023
9.9999968059
9.99999694404
9.99999708181
9.99999721583
9.9999973432
9.99999746077
9.99999756645
9.99999765819
9.9999977354
9.99999779762
9.99999784595
9.99999788145
9.99999790663
9.99999792364
9.99999793575
9.99999794555
9.99999795639
9.99999797067
9.99999799125
9.99999801988
9.99999805858
9.99999810824
9.99999816991
9.99999824358
9.99999832943
9.99999842673
9.99999853497
9.99999865293
9.99999877969
9.99999891378
9.99999905412
9.99999919921
9.99999934802
9.99999949919
9.99999965186
9.99999980494
9.99999995779
10.0000001096
10.0000002601
10.0000004086
10.0000005548
10.0000006984
10.0000008383
10.0000009746
10.0000011025
10.0000012298
10.0000013319
10.0000014832
10.0000014686
9.99999998889
9.9999998805
9.99999977984
9.99999968557
9.99999959065
9.99999949198
9.99999938743
9.99999927568
9.99999915591
9.99999902772
9.99999889096
9.99999874585
9.99999859277
9.99999843245
9.99999826574
9.99999809387
9.99999791813
9.99999774018
9.99999756172
9.99999738473
9.9999972112
9.99999704333
9.99999688327
9.99999673321
9.99999659537
9.99999647165
9.99999636424
9.99999627439
9.99999620421
9.99999615387
9.99999612544
9.99999611762
9.9999961325
9.99999616701
9.99999622332
9.99999629669
9.99999638916
9.99999649493
9.99999661552
9.99999674503
9.99999688411
9.99999702773
9.99999717563
9.99999732416
9.9999974726
9.99999761856
9.99999776141
9.99999789952
9.99999803245
9.99999815882
9.99999827806
9.99999838861
9.99999848954
9.9999985792
9.9999986566
9.99999872076
9.99999877157
9.99999880977
9.99999883681
9.99999885526
9.99999886744
9.99999887613
9.99999888233
9.99999888674
9.99999888779
9.9999988841
9.99999887309
9.99999885339
9.99999882316
9.9999987816
9.99999872762
9.99999866087
9.99999858129
9.99999848945
9.99999838666
9.9999982746
9.99999815586
9.99999803291
9.99999790888
9.99999778619
9.99999766763
9.99999755496
9.99999745015
9.99999735411
9.99999726796
9.99999719197
9.99999712665
9.99999707198
9.99999702823
9.99999699541
9.99999697376
9.99999696348
9.99999696486
9.99999697823
9.99999700385
9.99999704205
9.99999709294
9.99999715666
9.99999723306
9.999997322
9.99999742297
9.99999753552
9.9999976588
9.99999779208
9.99999793425
9.99999808439
9.99999824126
9.99999840386
9.99999857093
9.99999874151
9.99999891444
9.99999908888
9.99999926384
9.99999943867
9.99999961262
9.99999978522
9.99999995599
10.0000001246
10.0000002909
10.0000004544
10.0000006155
10.0000007723
10.0000009276
10.0000010721
10.0000012243
10.0000013368
10.0000015285
10.0000015093
9.99999998915
9.99999988133
9.99999978078
9.9999996872
9.99999959438
9.99999949964
9.99999940117
9.99999929788
9.9999991891
9.9999990746
9.99999895421
9.99999882808
9.9999986965
9.99999855999
9.99999841919
9.99999827501
9.99999812846
9.99999798082
9.99999783349
9.99999768805
9.99999754628
9.99999740988
9.99999728106
9.99999716136
9.99999705345
9.99999695828
9.99999687922
9.99999681588
9.99999677284
9.99999674734
9.99999674592
9.99999676227
9.99999680579
9.99999686553
9.99999695426
9.99999705626
9.99999718706
9.99999732753
9.99999749379
9.9999976664
9.99999785884
9.99999805492
9.99999826292
9.99999847199
9.99999868506
9.99999889609
9.99999910464
9.99999930748
9.99999950306
9.99999968915
9.99999986413
10.0000000261
10.0000001735
10.0000003048
10.0000004189
10.0000005153
10.0000005944
10.0000006574
10.0000007067
10.0000007457
10.0000007778
10.0000008062
10.0000008327
10.0000008575
10.0000008786
10.0000008933
10.0000008978
10.0000008887
10.000000863
10.0000008178
10.0000007508
10.0000006599
10.000000544
10.0000004024
10.0000002359
10.0000000457
9.99999983432
9.99999960505
9.99999936178
9.99999910874
9.99999885043
9.99999859135
9.99999833589
9.9999980882
9.99999785205
9.99999763083
9.99999742742
9.99999724426
9.99999708325
9.99999694587
9.99999683308
9.99999674549
9.99999668321
9.99999664611
9.99999663361
9.99999664496
9.99999667905
9.99999673467
9.99999681032
9.99999690449
9.99999701546
9.99999714153
9.99999728091
9.99999743188
9.99999759269
9.99999776171
9.99999793733
9.99999811811
9.99999830267
9.99999848982
9.99999867843
9.99999886757
9.99999905642
9.99999924429
9.99999943066
9.99999961505
9.99999979724
9.99999997682
10.0000001541
10.000000328
10.0000005003
10.0000006672
10.0000008355
10.000000989
10.0000011597
10.0000012765
10.0000014958
10.000001481
9.99999998929
9.99999988246
9.99999978283
9.99999969007
9.99999959851
9.99999950591
9.9999994108
9.99999931233
9.99999921004
9.99999910375
9.99999899345
9.99999887923
9.99999876129
9.99999864008
9.9999985161
9.99999839006
9.99999826285
9.99999813544
9.99999800915
9.99999788511
9.9999977652
9.99999765041
9.9999975435
9.99999744468
9.9999973582
9.99999728234
9.99999722412
9.99999717783
9.99999715556
9.99999714434
9.99999716486
9.99999719252
9.99999726103
9.99999732944
9.99999744823
9.99999755748
9.99999772459
9.99999787334
9.99999808155
9.99999826685
9.99999850424
9.99999872038
9.99999897283
9.99999920985
9.9999994642
9.99999970817
9.99999995378
10.0000001899
10.000000418
10.0000006341
10.000000837
10.0000010245
10.0000011955
10.0000013482
10.000001482
10.0000015964
10.0000016918
10.0000017703
10.0000018344
10.0000018891
10.0000019381
10.0000019867
10.0000020362
10.0000020882
10.0000021391
10.0000021856
10.0000022215
10.0000022429
10.0000022446
10.0000022231
10.0000021742
10.0000020956
10.0000019848
10.0000018411
10.0000016644
10.0000014559
10.0000012178
10.0000009531
10.0000006661
10.0000003606
10.000000042
9.99999971479
9.99999938473
9.99999905655
9.99999873578
9.99999842682
9.99999813453
9.99999786252
9.99999761456
9.99999739318
9.99999720081
9.99999703877
9.99999690812
9.99999680899
9.99999674121
9.99999670389
9.99999669587
9.99999671551
9.99999676097
9.99999683013
9.99999692075
9.99999703052
9.99999715708
9.99999729815
9.99999745145
9.99999761492
9.99999778654
9.99999796456
9.99999814729
9.99999833335
9.99999852146
9.99999871058
9.99999889981
9.99999908843
9.9999992759
9.99999946172
9.9999996458
9.99999982751
10.0000000076
10.0000001843
10.0000003608
10.0000005307
10.0000007057
10.0000008617
10.0000010438
10.0000011609
10.0000013948
10.0000013893
9.99999998956
9.9999998831
9.99999978326
9.99999969086
9.99999960017
9.99999950903
9.99999941612
9.99999932075
9.99999922259
9.99999912151
9.99999901759
9.99999891093
9.99999880172
9.99999869025
9.99999857706
9.99999846261
9.99999834784
9.9999982333
9.99999812058
9.99999801001
9.99999790429
9.99999780278
9.99999771029
9.99999762361
9.99999755175
9.99999748571
9.99999744295
9.99999740263
9.9999973983
9.99999738713
9.99999743116
9.99999745035
9.99999755229
9.999997601
9.99999776781
9.99999784472
9.99999807698
9.99999818292
9.99999847075
9.99999861058
9.99999893256
9.99999911289
9.9999994417
9.99999966345
9.99999997666
10.0000002281
10.0000005156
10.0000007749
10.0000010361
10.0000012821
10.0000015168
10.0000017369
10.000001941
10.0000021272
10.000002294
10.0000024402
10.0000025654
10.0000026713
10.0000027604
10.0000028374
10.0000029071
10.000002975
10.000003044
10.0000031149
10.0000031847
10.0000032482
10.0000032992
10.0000033317
10.0000033406
10.0000033214
10.0000032706
10.0000031853
10.0000030645
10.0000029075
10.0000027158
10.0000024904
10.000002234
10.0000019501
10.0000016432
10.0000013174
10.0000009774
10.0000006277
10.0000002725
9.99999991626
9.99999956388
9.99999922009
9.99999888955
9.99999857654
9.99999828499
9.99999801829
9.99999777926
9.99999757008
9.99999739226
9.99999724665
9.99999713346
9.99999705232
9.99999700232
9.99999698211
9.99999698996
9.99999702384
9.99999708154
9.99999716068
9.99999725885
9.99999737365
9.99999750272
9.99999764381
9.99999779486
9.99999795392
9.9999981193
9.99999828944
9.99999846306
9.99999863898
9.99999881633
9.99999899426
9.99999917233
9.99999934979
9.99999952681
9.99999970227
9.99999987759
10.0000000498
10.000000224
10.0000003906
10.0000005663
10.0000007193
10.000000906
10.0000010205
10.0000012591
10.0000012631
9.99999998997
9.99999988372
9.99999978466
9.99999969238
9.99999960178
9.99999951107
9.99999941914
9.99999932539
9.99999922957
9.99999913163
9.99999903162
9.99999892966
9.99999882595
9.99999872063
9.9999986143
9.99999850713
9.9999984003
9.99999829372
9.99999818972
9.99999808718
9.99999799079
9.99999789655
9.99999781417
9.99999773272
9.99999767265
9.99999760777
9.99999758069
9.99999753399
9.99999755383
9.99999752301
9.99999760773
9.99999758509
9.99999775637
9.99999772909
9.99999800879
9.99999796326
9.99999836433
9.99999829595
9.99999880851
9.99999873396
9.99999931407
9.9999992752
9.99999985082
9.99999989733
10.0000003995
10.0000005543
10.000000956
10.0000011954
10.0000015185
10.0000017911
10.0000020726
10.0000023367
10.0000025877
10.0000028203
10.0000030325
10.0000032199
10.0000033836
10.0000035239
10.0000036424
10.0000037455
10.0000038385
10.0000039296
10.0000040222
10.0000041191
10.0000042154
10.0000043053
10.0000043787
10.0000044287
10.0000044475
10.00000443
10.0000043714
10.0000042691
10.0000041235
10.0000039335
10.0000037024
10.0000034342
10.0000031345
10.0000028084
10.0000024622
10.0000021006
10.0000017292
10.0000013518
10.0000009732
10.0000005967
10.0000002266
9.99999986615
9.99999951899
9.99999918831
9.99999887822
9.99999859153
9.99999833135
9.99999809951
9.99999789788
9.99999772713
9.99999758785
9.99999747962
9.99999740188
9.99999735333
9.99999733253
9.99999733756
9.99999736644
9.99999741693
9.9999974868
9.99999757378
9.99999767568
9.99999779037
9.9999979159
9.99999805045
9.99999819241
9.99999834032
9.99999849298
9.99999864926
9.99999880838
9.99999896944
9.99999913213
9.99999929552
9.99999946005
9.99999962407
9.99999978977
9.99999995281
10.0000001202
10.0000002792
10.0000004513
10.0000005974
10.0000007837
10.0000008929
10.0000011299
10.0000011397
9.99999998985
9.99999988293
9.99999978246
9.99999968982
9.9999995993
9.99999950896
9.99999941774
9.9999993251
9.99999923086
9.99999913496
9.99999903749
9.99999893852
9.99999883832
9.99999873682
9.99999863484
9.99999853202
9.99999843019
9.99999832803
9.99999822961
9.99999813088
9.99999804084
9.99999794868
9.99999787425
9.99999779116
9.99999774287
9.99999766889
9.9999976624
9.99999759201
9.99999765122
9.99999756908
9.99999773025
9.99999760617
9.99999792119
9.99999770753
9.99999824148
9.9999978793
9.99999869434
9.9999981368
9.99999925588
9.99999851099
9.99999986915
9.99999904209
10.0000004615
9.99999974854
10.0000009907
10.000000588
10.0000014909
10.0000014617
10.0000020395
10.0000022682
10.0000026623
10.0000029787
10.0000033045
10.0000036084
10.0000038906
10.0000041453
10.00000437
10.0000045604
10.0000047221
10.0000048607
10.0000049836
10.0000050992
10.000005214
10.0000053302
10.0000054441
10.0000055464
10.0000056265
10.0000056732
10.000005679
10.000005636
10.000005541
10.0000053909
10.0000051861
10.0000049298
10.0000046282
10.0000042883
10.0000039184
10.0000035266
10.0000031206
10.000002707
10.0000022914
10.0000018782
10.0000014713
10.0000010738
10.0000006884
10.0000003178
9.99999996405
9.99999962961
9.99999931639
9.99999902655
9.99999876226
9.9999985254
9.99999831717
9.99999813839
9.99999798922
9.99999786944
9.99999777828
9.99999771466
9.99999767711
9.99999766398
9.99999767334
9.99999770325
9.99999775163
9.99999781647
9.99999789579
9.99999798771
9.9999980905
9.99999820256
9.9999983225
9.99999844903
9.99999858114
9.99999871781
9.99999885843
9.99999900209
9.99999914873
9.99999929713
9.99999944821
9.99999959959
9.99999975444
9.9999999068
10.000000066
10.0000002156
10.000000382
10.0000005196
10.0000007026
10.0000008046
10.000001037
10.0000010481
9.99999999044
9.9999998828
9.99999978255
9.99999968892
9.99999959718
9.99999950588
9.99999941414
9.99999932146
9.99999922764
9.99999913257
9.99999903638
9.99999893897
9.99999884077
9.99999874135
9.99999864195
9.99999854137
9.99999844263
9.99999834236
9.99999824764
9.99999814962
9.99999806446
9.99999797035
9.99999790364
9.99999781303
9.99999777916
9.9999976862
9.99999770924
9.99999759652
9.99999771769
9.99999754632
9.99999783561
9.9999975311
9.99999810144
9.99999753895
9.99999855575
9.99999755681
9.9999992244
9.9999975895
10.0000000864
9.99999769169
10.0000010371
9.99999799117
10.0000018856
9.99999865514
10.0000024527
9.99999976995
10.0000027302
10.0000011772
10.0000029509
10.000002535
10.0000033941
10.0000036145
10.0000040848
10.0000044574
10.0000048234
10.0000051578
10.0000054531
10.0000057073
10.0000059187
10.0000060977
10.0000062531
10.0000063988
10.0000065439
10.0000066956
10.0000068453
10.0000069817
10.0000070863
10.0000071478
10.0000071532
10.0000070951
10.0000069658
10.0000067613
10.0000064842
10.0000061411
10.0000057423
10.0000052989
10.0000048243
10.0000043301
10.000003828
10.0000033263
10.0000028331
10.0000023527
10.00000189
10.0000014468
10.000001026
10.0000006284
10.0000002558
9.9999999086
9.99999958815
9.99999929483
9.99999902945
9.99999879246
9.99999858481
9.99999840644
9.9999982573
9.99999813657
9.99999804335
9.9999979762
9.99999793362
9.9999979138
9.99999791491
9.999997935
9.99999797217
9.99999802455
9.99999809036
9.99999816794
9.99999825579
9.99999835256
9.99999845708
9.99999856825
9.99999868533
9.99999880736
9.99999893403
9.99999906433
9.99999919854
9.99999933513
9.99999947557
9.99999961664
9.99999976266
9.9999999059
10.000000058
10.0000001991
10.0000003602
10.0000004895
10.0000006687
10.0000007629
10.0000009904
10.0000009991
9.99999998989
9.99999988067
9.99999977787
9.9999996831
9.99999959057
9.99999949861
9.99999940641
9.99999931348
9.99999921971
9.99999912491
9.9999990293
9.99999893255
9.99999883538
9.99999873681
9.9999986388
9.9999985389
9.99999844189
9.99999834158
9.99999824914
9.99999814943
9.99999806789
9.99999796874
9.99999790901
9.99999780664
9.99999778779
9.99999766925
9.99999772581
9.99999755864
9.99999775437
9.99999746788
9.99999791985
9.99999737413
9.99999828961
9.99999723179
9.9999989532
9.99999697357
10.0000000063
9.99999653678
10.0000014972
9.99999593626
10.0000033231
9.99999537954
10.0000051244
9.99999534709
10.0000063166
9.99999640635
10.000006429
9.99999871082
10.0000056702
10.0000015823
10.0000049912
10.0000039499
10.0000051622
10.0000054253
10.0000059637
10.0000064056
10.0000068035
10.000007151
10.0000074505
10.0000076935
10.0000078929
10.0000080784
10.0000082726
10.0000084672
10.0000086336
10.0000087511
10.0000088143
10.0000088284
10.0000087903
10.0000086913
10.0000085118
10.0000082396
10.0000078743
10.000007424
10.0000069042
10.0000063329
10.0000057294
10.000005111
10.0000044926
10.0000038862
10.0000033001
10.0000027404
10.0000022103
10.0000017123
10.000001247
10.0000008153
10.000000417
10.0000000525
9.99999972106
9.99999942266
9.99999915648
9.99999892191
9.99999871796
9.99999854426
9.9999983998
9.99999828351
9.99999819384
9.99999812924
9.99999808786
9.99999806789
9.99999806738
9.9999980845
9.99999811737
9.99999816429
9.99999822363
9.99999829393
9.99999837388
9.9999984623
9.99999855827
9.99999866079
9.99999876937
9.99999888305
9.99999900182
9.99999912446
9.99999925171
9.99999938145
9.99999951597
9.99999965088
9.99999979199
9.99999992936
10.0000000775
10.0000002125
10.0000003704
10.0000004929
10.0000006696
10.0000007566
10.0000009803
10.0000009845
9.99999999066
9.99999988007
9.99999977701
9.99999968027
9.99999958535
9.9999994912
9.99999939722
9.9999993029
9.99999920815
9.99999911261
9.99999901664
9.99999891955
9.99999882242
9.9999987236
9.9999986259
9.99999852548
9.99999842898
9.99999832739
9.9999982358
9.9999981333
9.99999805353
9.99999794879
9.99999789325
9.99999778003
9.99999777132
9.99999763141
9.9999977122
9.99999750126
9.99999775415
9.99999737391
9.9999979596
9.9999972059
9.99999843114
9.99999690545
9.99999933084
9.9999963113
10.000000889
9.99999519576
10.0000033629
9.99999334913
10.0000068769
9.99999082761
10.0000111081
9.99998833296
10.0000149116
9.99998740049
10.0000164816
9.99998972261
10.0000146502
9.99999538238
10.0000106647
10.0000017954
10.0000077304
10.0000059615
10.0000074371
10.000007812
10.0000083491
10.0000088431
10.0000092536
10.000009536
10.0000097711
10.0000101069
10.0000104694
10.0000106102
10.0000103711
10.0000098476
10.0000093005
10.0000089622
10.0000089053
10.0000090402
10.0000091994
10.0000092381
10.0000090812
10.000008719
10.000008185
10.0000075279
10.0000067977
10.0000060342
10.0000052694
10.0000045243
10.0000038149
10.0000031491
10.0000025323
10.0000019648
10.0000014463
10.0000009734
10.0000005443
10.0000001556
9.99999980589
9.99999949293
9.99999921585
9.99999897298
9.9999987635
9.99999858565
9.99999843873
9.9999983212
9.99999823149
9.99999816758
9.99999812747
9.99999810894
9.99999810989
9.9999981282
9.99999816192
9.99999820921
9.99999826848
9.9999983382
9.99999841722
9.99999850431
9.99999859881
9.99999869959
9.99999880654
9.9999989184
9.99999903572
9.99999915663
9.9999992828
9.99999941088
9.99999954472
9.99999967776
9.99999981852
9.99999995335
10.0000001013
10.0000002325
10.0000003904
10.0000005072
10.0000006839
10.0000007634
10.0000009854
10.000000982
9.99999998976
9.99999987693
9.9999997705
9.99999967199
9.99999957561
9.99999947997
9.99999938457
9.99999928891
9.99999919304
9.99999909644
9.99999899964
9.99999890164
9.99999880384
9.99999870407
9.99999860575
9.99999850409
9.99999840683
9.99999830342
9.99999821076
9.99999810558
9.99999802428
9.99999791581
9.99999785814
9.99999774011
9.99999772855
9.99999758286
9.99999766037
9.99999744218
9.99999769404
9.9999973002
9.99999789944
9.99999710363
9.99999840215
9.99999672729
9.99999942805
9.99999591523
10.0000013659
9.99999421142
10.0000048157
9.99999094698
10.0000105161
9.99998547477
10.0000189009
9.99997787506
10.0000290701
9.99997018927
10.0000376249
9.9999670543
10.0000392403
9.99997329349
10.0000311465
9.99998799986
10.0000185755
10.0000022822
10.0000111736
10.0000089767
10.0000104787
10.0000112082
10.0000115549
10.0000117392
10.0000126057
10.000013958
10.0000136638
10.0000096517
10.0000021027
9.99999348771
9.99998690876
9.99998432388
9.99998586629
9.99999022246
9.99999560016
10.0000005252
10.0000042036
10.0000064646
10.000007517
10.0000077036
10.0000073479
10.0000066915
10.0000058907
10.0000050362
10.0000041779
10.0000033444
10.0000025542
10.0000018219
10.0000011577
10.0000005686
10.0000000565
9.99999961949
9.99999925231
9.99999894808
9.99999869882
9.99999849718
9.99999833607
9.99999820992
9.99999811348
9.9999980435
9.99999799689
9.99999797124
9.99999796421
9.99999797391
9.99999799849
9.99999803636
9.99999808606
9.99999814624
9.99999821588
9.99999829381
9.99999837952
9.99999847184
9.99999857089
9.99999867522
9.99999878578
9.99999890033
9.99999902108
9.99999914418
9.99999927401
9.99999940367
9.99999954152
9.99999967498
9.99999982005
9.99999995322
10.0000001056
10.0000002318
10.0000003941
10.000000501
10.0000006816
10.000000745
10.0000009688
10.0000009422
9.99999999069
9.99999987609
9.99999976907
9.99999966784
9.99999956818
9.99999946942
9.99999937128
9.99999927321
9.99999917527
9.9999990768
9.99999897834
9.99999887871
9.99999877937
9.99999867801
9.99999857801
9.99999847463
9.99999837521
9.99999826991
9.99999817406
9.99999806715
9.99999798062
9.99999787168
9.99999780476
9.99999769035
9.99999766125
9.9999975297
9.99999757238
9.99999739245
9.99999757389
9.9999972691
9.99999772811
9.99999711892
9.99999815227
9.99999682741
9.99999907774
9.99999611889
10.0000009651
9.99999439783
10.0000046948
9.99999052806
10.0000117931
9.99998269501
10.000024352
9.99996885592
10.000043922
9.99994875644
10.0000684697
9.99992780909
10.0000884904
9.99991938899
10.0000886097
9.99993702356
10.0000623879
9.99997493897
10.0000292812
10.0000041508
10.0000156656
10.0000136127
10.0000128971
10.0000154029
10.0000220718
10.0000204057
9.99999116096
9.9999277542
9.99984433758
9.99976716999
9.99971966611
9.99971223527
9.99974066097
9.9997913638
9.99984882741
9.99990110276
9.99994198132
9.99997029913
9.99998793402
9.99999783803
10.0000027926
10.0000048956
10.0000055265
10.00000549
10.0000052006
10.0000048299
10.0000044249
10.0000039798
10.0000034831
10.0000029331
10.0000023441
10.0000017384
10.0000011426
10.0000005795
10.0000000668
9.99999961489
9.99999922846
9.99999890691
9.99999864666
9.99999844185
9.99999828656
9.99999817434
9.99999809918
9.99999805547
9.99999803848
9.99999804394
9.99999806863
9.99999810938
9.99999816441
9.99999823114
9.99999830918
9.99999839581
9.99999849225
9.9999985947
9.99999870662
9.9999988217
9.99999894704
9.99999907158
9.99999920858
9.99999933867
9.9999994857
9.99999961609
9.99999977179
9.99999989496
10.0000000589
10.0000001636
10.0000003377
10.0000004057
10.0000005971
10.0000005967
10.0000008279
10.0000007038
9.99999998951
9.99999987225
9.99999976133
9.99999965797
9.99999955637
9.99999945551
9.99999935524
9.99999925506
9.99999915508
9.99999905462
9.99999895417
9.9999988526
9.99999875116
9.99999864783
9.99999854536
9.99999843995
9.99999833724
9.99999823
9.99999812926
9.99999802112
9.99999792668
9.99999781892
9.99999773816
9.99999763139
9.99999757641
9.9999974682
9.99999745962
9.99999733903
9.9999974148
9.99999724938
9.99999748586
9.99999718895
9.99999775289
9.99999710072
9.99999837978
9.99999680274
9.99999973083
9.9999958038
10.0000026389
9.99999292191
10.0000089429
9.99998559795
10.0000222479
9.99996917068
10.0000482672
9.99993749516
10.0000924327
9.99988808224
10.0001513094
9.99983390379
10.0001997414
9.99981237201
10.0001932666
9.99986288151
10.0001158529
9.99995841448
10.0000428557
10.0000041048
10.0000173425
10.0000460365
10.0000456991
9.99989291764
9.99949642998