/*--------------------------------*- C++ -*----------------------------------*\
  =========                 |
  \\      /  F ield         | OpenFOAM: The Open Source CFD Toolbox
   \\    /   O peration     | Website:  https://openfoam.org
    \\  /    A nd           | Version:  7
     \\/     M anipulation  |
\*---------------------------------------------------------------------------*/
FoamFile
{
    version     2.0;
    format      ascii;
    class       volScalarField;
    location    "2340";
    object      p;
}
// * * * * * * * * * * * * * * * * * * * * * * * * * * * * * * * * * * * * * //

dimensions      [0 2 -2 0 0 0 0];

internalField   nonuniform List<scalar> 
8192
(
0.000585997714989
0.000414448936766
0.000328835764562
0.000284726460956
0.000259706568977
0.000244474652011
0.000234612139397
0.000227874111025
0.000223053488584
0.000219466172528
0.000216704800681
0.000214515491564
0.000212733418502
0.000211247677587
0.00020998132262
0.000208879560915
0.000207902509005
0.000207020590555
0.000206211519153
0.000205458262814
0.00020474763498
0.000204069296097
0.000203415030916
0.000202778214705
0.000202153411306
0.000201536064278
0.000200922254474
0.000200308504909
0.000199691618966
0.000199068541769
0.000198436237423
0.000197791575154
0.000197131219223
0.000196451518206
0.000195748390188
0.000195017200655
0.000194252630778
0.000193448534179
0.000192597781604
0.000191692093976
0.000190721866571
0.00018967598941
0.000188541672816
0.000187304291285
0.000185947264492
0.000184452000106
0.000182797929325
0.000180962670914
0.000178922362076
0.000176652192224
0.000174127167146
0.000171323114451
0.000168217916505
0.000164792926119
0.000161034486134
0.000156935442019
0.00015249651005
0.000147727347812
0.000142647171218
0.000137284781556
0.000131677913586
0.000125871899764
0.0001199177556
0.000113869902937
0.000107783817103
0.000101713881828
9.57116614182e-05
8.98246692032e-05
8.40955951333e-05
7.85618936534e-05
7.32556025016e-05
6.82032785938e-05
6.34259730664e-05
5.89392127837e-05
5.47529960071e-05
5.08718415582e-05
4.729494473e-05
4.40164892484e-05
4.10261417944e-05
3.83097232304e-05
3.58500171015e-05
3.36276523565e-05
3.1621987843e-05
2.98119319706e-05
2.81766473681e-05
2.66961116633e-05
2.53515263063e-05
2.41255816708e-05
2.30025976262e-05
2.19685637437e-05
2.10111044592e-05
2.01193921486e-05
1.928402784e-05
1.84969047905e-05
1.7751066583e-05
1.70405675208e-05
1.63603407029e-05
1.57060765822e-05
1.50741136534e-05
1.44613414067e-05
1.38651153769e-05
1.32831832762e-05
1.27136213566e-05
1.21547796677e-05
1.16052352333e-05
1.10637518717e-05
1.05292458e-05
1.00007559493e-05
9.47741833335e-06
8.95844365177e-06
8.44309771749e-06
7.93068420168e-06
7.42052964002e-06
6.91197068832e-06
6.40434425129e-06
5.89698152646e-06
5.38920822949e-06
4.8803547611e-06
4.36978316192e-06
3.85694264357e-06
3.34147504194e-06
2.82340922349e-06
2.30351912319e-06
1.78399409078e-06
1.26973788361e-06
7.71028504221e-07
3.10056838015e-07
-2.53841384783e-09
0.00043708304291
0.000373570149077
0.000323883816684
0.000291236247908
0.00026931873612
0.000254140476253
0.0002433225939
0.000235400191456
0.000229448076785
0.000224867946504
0.000221263816827
0.000218367572314
0.000215993643177
0.000214010898745
0.000212324876944
0.000210866321946
0.000209583639676
0.000208437831512
0.000207399025114
0.000206444053892
0.000205554737668
0.000204716640392
0.000203918157851
0.000203149836974
0.00020240385993
0.000201673646656
0.000200953543283
0.00020023857307
0.000199524232306
0.000198806318857
0.000198080784387
0.000197343601962
0.000196590643086
0.000195817559444
0.000195019665604
0.000194191819528
0.000193328298704
0.000192422670323
0.000191467655186
0.000190454986117
0.000189375263601
0.000188217813471
0.000186970554537
0.000185619887515
0.000184150620952
0.0001825459544
0.000180787543644
0.000178855676329
0.000176729587779
0.000174387944525
0.000171809515593
0.00016897403789
0.000165863261751
0.000162462137621
0.00015876007742
0.000154752198872
0.000150440440781
0.000145834425781
0.000140951946019
0.00013581896241
0.000130469045208
0.000124942250013
0.000119283512857
0.000113540740868
0.000107762834273
0.000101997872879
9.62916443495e-05
9.06865756199e-05
8.52210340393e-05
7.99289240218e-05
7.48394766134e-05
6.99771437455e-05
6.5361537386e-05
6.10073882701e-05
5.6924530077e-05
5.31179392901e-05
4.95878721457e-05
4.63301367332e-05
4.3336519997e-05
4.05953630347e-05
3.80922510302e-05
3.58107652394e-05
3.37332372792e-05
3.18414510797e-05
3.01172513541e-05
2.85430347183e-05
2.71021162368e-05
2.57789773124e-05
2.45594095931e-05
2.34305737958e-05
2.23809934081e-05
2.14005017052e-05
2.04801580786e-05
1.96121463793e-05
1.87896651428e-05
1.80068166248e-05
1.72584995547e-05
1.65403085083e-05
1.58484417039e-05
1.51796178327e-05
1.4531002108e-05
1.39001410564e-05
1.32849055411e-05
1.26834411495e-05
1.20941252404e-05
1.15155297411e-05
1.09463890322e-05
1.03855721326e-05
9.83205867294e-06
9.28491807134e-06
8.74329162371e-06
8.20637721226e-06
7.67341669093e-06
7.14368613001e-06
6.61648962772e-06
6.09115782476e-06
5.56705323497e-06
5.0435856814e-06
4.52024327594e-06
3.99664747906e-06
3.47264604963e-06
2.94846602141e-06
2.42496301089e-06
1.90402755604e-06
1.38925259498e-06
8.87077210062e-07
4.08299671197e-07
4.07243173958e-08
0.000354132732236
0.000331466432448
0.000305477317975
0.000284244414909
0.000268129153858
0.000255822160324
0.000246303871714
0.000238846654889
0.000232928536437
0.000228170381969
0.000224293970204
0.000221093335246
0.000218414716351
0.000216142341966
0.000214188276226
0.000212485127817
0.000210980785414
0.000209634591974
0.000208414543957
0.000207295223754
0.000206256259646
0.000205281167682
0.000204356472119
0.000203471030374
0.000202615509265
0.000201781973671
0.000200963559243
0.000200154208185
0.00019934845113
0.000198541224025
0.000197727711561
0.000196903208478
0.000196062993186
0.000195202209143
0.000194315750437
0.000193398148545
0.000192443458296
0.000191445141551
0.000190395948348
0.00018928779611
0.000188111649257
0.000186857403149
0.000185513778941
0.000184068238602
0.000182506933007
0.000180814699695
0.000178975130827
0.000176970734993
0.000174783218128
0.000172393907315
0.000169784335423
0.000166936993135
0.000163836237434
0.000160469323809
0.000156827505079
0.000152907117885
0.000148710560297
0.000144247054227
0.000139533083436
0.000134592407289
0.0001294555773
0.000124158940033
0.000118743193676
0.000113251659968
0.000107728496394
0.00010221707037
9.67586673996e-05
9.13915755382e-05
8.61504963179e-05
8.10662115019e-05
7.61654065115e-05
7.14705727148e-05
6.69999388398e-05
6.27674129247e-05
5.87825431893e-05
5.5050527973e-05
5.15723149097e-05
4.83448262703e-05
4.53613295284e-05
4.26119465679e-05
4.00842690513e-05
3.7764029997e-05
3.56357760504e-05
3.36834909104e-05
3.18911339706e-05
3.02430743685e-05
2.87244157135e-05
2.73212178631e-05
2.60206293691e-05
2.48109471407e-05
2.36816205159e-05
2.26232151775e-05
2.1627350327e-05
2.06866195615e-05
1.97945037227e-05
1.89452814284e-05
1.8133941533e-05
1.73560999818e-05
1.66079227944e-05
1.58860557855e-05
1.51875614155e-05
1.45098624702e-05
1.3850692349e-05
1.3208051307e-05
1.25801682217e-05
1.19654671664e-05
1.13625383577e-05
1.07701128385e-05
1.01870405628e-05
9.61227140238e-06
9.04483890986e-06
8.48384658853e-06
7.92845676887e-06
7.37788220165e-06
6.83138092083e-06
6.28825511788e-06
5.74785542983e-06
5.20959257999e-06
4.67295943801e-06
4.13756780369e-06
3.60320635327e-06
3.06992899094e-06
2.53818749018e-06
2.00902877231e-06
1.4843844733e-06
9.67421260419e-07
4.62293068852e-07
5.26237070437e-08
0.000309579404472
0.000301191217347
0.000286999350555
0.000273207943553
0.000261780434868
0.000252505998992
0.000244931997413
0.000238690305878
0.000233502882833
0.000229157218123
0.000225487563151
0.000222362829567
0.000219678522048
0.000217350970438
0.000215312971451
0.000213510392543
0.000211899490278
0.000210444783967
0.000209117368503
0.000207893575701
0.000206753911553
0.000205682211112
0.000204664964529
0.000203690777302
0.000202749935666
0.000201834054141
0.000200935787236
0.000200048591616
0.000199166525164
0.000198284076327
0.000197396017349
0.000196497273418
0.000195582803606
0.000194647489896
0.000193686031205
0.000192692839857
0.000191661938665
0.00019058685733
0.000189460527686
0.000188275178165
0.000187022229079
0.000185692191782
0.000184274576775
0.000182757818294
0.000181129225957
0.000179374977628
0.000177480171437
0.000175428958471
0.000173204780018
0.000170790733202
0.000168170084636
0.000165326942087
0.000162247078077
0.0001589188782
0.00015533436311
0.000151490211433
0.000147388694207
0.000143038421319
0.000138454795086
0.000133660067746
0.000128682917099
0.000123557504639
0.000118322070656
0.000113017231838
0.000107684228175
0.000102363360196
9.70928070162e-05
9.19078443441e-05
8.68403796947e-05
8.19187233773e-05
7.71674836185e-05
7.26075078412e-05
6.82558255247e-05
6.41255792561e-05
6.02259575986e-05
5.65621651494e-05
5.31354764101e-05
4.99434162838e-05
4.69800901036e-05
4.42366568513e-05
4.17019105711e-05
3.93629165726e-05
3.72056446064e-05
3.52155495281e-05
3.33780656284e-05
3.16789982729e-05
3.01048113992e-05
2.86428198424e-05
2.72813012131e-05
2.60095439916e-05
2.48178479659e-05
2.36974911066e-05
2.26406744868e-05
2.16404542141e-05
2.06906671111e-05
1.9785854865e-05
1.89211899309e-05
1.80924052067e-05
1.72957287397e-05
1.65278240043e-05
1.57857359691e-05
1.50668427855e-05
1.43688128561e-05
1.3689566834e-05
1.30272441635e-05
1.23801736533e-05
1.17468476962e-05
1.1125899678e-05
1.0516084265e-05
9.91626022203e-06
9.32537556971e-06
8.74245488507e-06
8.16658872465e-06
7.59692518716e-06
7.0326638496e-06
6.47305242433e-06
5.91738679192e-06
5.36501532652e-06
4.81534895312e-06
4.26787900055e-06
3.72220604034e-06
3.17808453533e-06
2.63549052346e-06
2.0947206167e-06
1.55651502189e-06
1.02207944876e-06
4.92317782659e-07
5.45855684384e-08
0.000281962309818
0.000279990989738
0.000272189059861
0.000262994022919
0.000254710932961
0.000247677211132
0.000241735931605
0.000236681818914
0.000232346557748
0.000228600478253
0.000225342309261
0.000222490793469
0.000219979297762
0.000217752439856
0.000215763857736
0.000213974605164
0.000212351906973
0.000210868144284
0.000209500005792
0.000208227770818
0.000207034702492
0.000205906534717
0.000204831039229
0.000203797660604
0.000202797208471
0.000201821597394
0.000200863626126
0.000199916790067
0.000198975116853
0.00019803302403
0.000197085194955
0.000196126465735
0.000195151721289
0.000194155797796
0.000193133389198
0.000192078955726
0.000190986632901
0.000189850139824
0.000188662686176
0.000187416877909
0.000186104622625
0.000184717036743
0.000183244358284
0.000181675871243
0.000179999850406
0.00017820353899
0.000176273175595
0.000174194091259
0.000171950901015
0.000169527815967
0.000166909099494
0.000164079683003
0.000161025940975
0.000157736603094
0.000154203755737
0.000150423861957
0.000146398712214
0.000142136208024
0.000137650872516
0.0001329639746
0.000128103158117
0.000123101511361
0.000117996115463
0.000112826254106
0.000107631580393
0.000102450529075
9.73192012312e-05
9.22707097712e-05
8.73348516031e-05
8.25380039934e-05
7.79031109728e-05
7.34496780361e-05
6.91937341208e-05
6.51477527346e-05
6.13205520602e-05
5.77172179782e-05
5.43391079198e-05
5.11839894614e-05
4.82463433965e-05
4.55178248995e-05
4.29878419078e-05
4.0644188938e-05
3.84736716109e-05
3.64626691394e-05
3.45976017004e-05
3.2865289695e-05
3.12532078116e-05
2.97496467164e-05
2.83437997751e-05
2.70257927313e-05
2.57866725987e-05
2.46183691753e-05
2.35136396943e-05
2.24660043406e-05
2.14696781866e-05
2.05195032495e-05
1.9610883127e-05
1.8739721615e-05
1.79023661209e-05
1.70955561296e-05
1.63163767615e-05
1.55622171808e-05
1.48307335801e-05
1.41198163302e-05
1.34275609334e-05
1.27522423531e-05
1.2092292376e-05
1.14462796293e-05
1.08128919714e-05
1.01909209566e-05
9.57924817439e-06
8.97683325718e-06
8.38270345701e-06
7.79594470206e-06
7.21569416812e-06
6.64113445212e-06
6.07148961764e-06
5.50602354737e-06
4.94404140566e-06
4.38489549326e-06
3.82799759422e-06
3.27284079609e-06
2.71903378467e-06
2.16634450125e-06
1.61471747011e-06
1.06410073703e-06
5.13578946439e-07
5.49679140137e-08
0.000263617673439
0.000264508479104
0.000260461866316
0.000254323890558
0.000248226460963
0.000242791368549
0.000238069066283
0.000233964551662
0.000230371125037
0.000227200208332
0.000224382360593
0.000221862720977
0.000219596809679
0.000217547628439
0.000215683810324
0.000213978437573
0.000212408247588
0.000210953057561
0.000209595314442
0.000208319721675
0.000207112918234
0.000205963197541
0.000204860259515
0.000203794991448
0.000202759274416
0.000201745812258
0.000200747980379
0.000199759692691
0.000198775279441
0.000197789378675
0.000196796840023
0.000195792633918
0.000194771766497
0.000193729198327
0.000192659765317
0.000191558100313
0.000190418554103
0.000189235114772
0.000188001324671
0.000186710194696
0.000185354116221
0.000183924771983
0.000182413048555
0.000180808955088
0.000179101555625
0.000177278926057
0.000175328151243
0.000173235383172
0.000170985986122
0.000168564798485
0.000165956540562
0.000163146390896
0.000160120737957
0.000156868089817
0.000153380095452
0.000149652605146
0.000145686680135
0.00014148945288
0.000137074729266
0.000132463205365
0.000127682157061
0.000122764493503
0.000117747187461
0.000112669292058
0.000107569921005
0.0001024865616
9.74540025472e-05
9.25038193294e-05
8.76642070928e-05
8.29600248506e-05
7.84128880919e-05
7.40412243964e-05
6.98602561037e-05
6.5881907746e-05
6.21146649788e-05
5.85634399519e-05
5.52295171773e-05
5.21106502631e-05
4.92013491198e-05
4.64933504444e-05
4.39762205982e-05
4.16380154597e-05
3.94659210709e-05
3.74468166326e-05
3.55677268998e-05
3.38161552363e-05
3.21803059005e-05
3.0649213726e-05
2.92128023429e-05
2.78618910459e-05
2.65881671941e-05
2.53841373162e-05
2.42430665338e-05
2.31589130143e-05
2.21262618846e-05
2.11402613917e-05
2.01965629287e-05
1.92912657513e-05
1.84208666958e-05
1.75822148697e-05
1.67724711033e-05
1.59890718182e-05
1.52296969423e-05
1.4492241455e-05
1.37747901832e-05
1.30755954571e-05
1.23930572948e-05
1.17257057814e-05
1.10721853727e-05
1.04312408547e-05
9.80170474813e-06
9.18248595343e-06
8.57255948765e-06
7.97095717839e-06
7.37675925249e-06
6.78908679938e-06
6.20709521706e-06
5.62996888315e-06
5.05691755326e-06
4.48717527758e-06
3.92000290391e-06
3.35469484858e-06
2.79058787337e-06
2.22705783237e-06
1.66345240725e-06
1.09880888723e-06
5.31052277035e-07
5.56918681315e-08
0.000250741444265
0.00025285991293
0.000251056873616
0.000247034409905
0.000242542835926
0.000238299019432
0.000234492343449
0.000231117242299
0.000228116396573
0.000225429421479
0.000223005338694
0.000220803386547
0.000218790970442
0.000216941494781
0.000215232717697
0.000213645629679
0.000212163714509
0.00021077245762
0.000209459005416
0.000208211914309
0.000207020953158
0.000205876938556
0.000204771591713
0.00020369741083
0.000202647555644
0.000201615742157
0.000200596146565
0.000199583317123
0.000198572089748
0.000197557510522
0.000196534765859
0.000195499113663
0.000194445817021
0.000193370079233
0.000192266979029
0.000191131404897
0.000189957987424
0.00018874102868
0.00018747442774
0.000186151601748
0.000184765402264
0.000183308027395
0.00018177093126
0.000180144734137
0.000178419139227
0.000176582865751
0.000174623613189
0.000172528077868
0.000170282050093
0.000167870626177
0.000165278572082
0.00016249087037
0.000159493466141
0.000156274199957
0.000152823881129
0.000149137423619
0.000145214949184
0.000141062757616
0.000136694054594
0.000132129294768
0.000127395953354
0.000122527549381
0.000117561888409
0.000112538770006
0.000107497662236
0.000102475842894
9.75073645173e-05
9.26227149416e-05
8.78488511404e-05
8.3209419998e-05
7.87249712408e-05
7.44130781585e-05
7.02883388799e-05
6.63622628482e-05
6.26430758101e-05
5.91355114568e-05
5.58406857371e-05
5.2756147661e-05
4.98761599682e-05
4.71922002899e-05
4.46936164411e-05
4.23683400735e-05
4.02035660752e-05
3.81863312966e-05
3.63039601494e-05
3.45443741544e-05
3.28962817195e-05
3.13492731719e-05
2.98938471085e-05
2.85213908578e-05
2.72241329274e-05
2.59950803967e-05
2.48279500583e-05
2.3717098937e-05
2.26574575513e-05
2.16444677421e-05
2.06740258995e-05
1.97424317987e-05
1.88463428937e-05
1.79827337137e-05
1.71488599202e-05
1.63422265388e-05
1.55605598977e-05
1.480178282e-05
1.40639926576e-05
1.33454417898e-05
1.2644520251e-05
1.19597401821e-05
1.12897218395e-05
1.06331809169e-05
9.98891696791e-06
9.35580273388e-06
8.73277421317e-06
8.11882132589e-06
7.51297907e-06
6.91431910483e-06
6.32194176949e-06
5.7349686229e-06
5.15253567775e-06
4.57378747721e-06
3.99787175349e-06
3.42393275733e-06
2.85109628027e-06
2.27842555603e-06
1.7047940468e-06
1.12855985209e-06
5.46884949195e-07
5.77087600667e-08
0.000241288693931
0.000243871633696
0.000243417251735
0.00024087750991
0.000237601943218
0.000234285481014
0.00023119356459
0.000228388538446
0.000225856127066
0.000223560815058
0.000221466275404
0.000219541285323
0.000217760364169
0.000216102849892
0.000214551758575
0.000213092831712
0.000211713835453
0.000210404071436
0.000209154040382
0.000207955208109
0.000206799837431
0.000205680861515
0.000204591783166
0.000203526590483
0.000202479683147
0.000201445805927
0.000200419988408
0.000199397486996
0.000198373728543
0.000197344256975
0.000196304684336
0.000195250640357
0.000194177722297
0.000193081444245
0.000191957185026
0.000190800133828
0.000189605232574
0.000188367114037
0.00018708003463
0.000185737800929
0.000184333689096
0.000182860356868
0.000181309748569
0.000179672995127
0.000177940313477
0.000176100913666
0.000174142927509
0.000172053380386
0.00016981823685
0.000167422560093
0.000164850831072
0.000162087470833
0.000159117593109
0.00015592798199
0.000152508246145
0.000148852062322
0.00014495840286
0.000140832646051
0.00013648746538
0.000131943344046
0.000127228469744
0.0001223777292
0.000117430688816
0.000112428847955
0.000107412857094
0.000102420407598
9.74852490075e-05
9.26370902442e-05
8.79018956878e-05
8.33023179576e-05
7.88580443881e-05
7.45859839908e-05
7.05002827604e-05
6.66121794276e-05
6.29297395223e-05
5.94575505138e-05
5.61965038693e-05
5.31437912098e-05
5.0293187118e-05
4.76356049244e-05
4.51598357686e-05
4.28533460178e-05
4.07030178567e-05
3.86957567913e-05
3.68189352825e-05
3.50606781951e-05
3.34100166359e-05
3.18569440807e-05
3.03924067501e-05
2.9008254209e-05
2.76971690213e-05
2.64525881401e-05
2.52686238183e-05
2.41399885019e-05
2.3061925879e-05
2.20301489335e-05
2.10407850051e-05
2.00903274685e-05
1.91755934127e-05
1.8293686656e-05
1.74419654245e-05
1.66180140726e-05
1.58196182818e-05
1.50447432371e-05
1.42915143445e-05
1.35582001045e-05
1.28431968119e-05
1.21450147864e-05
1.14622658814e-05
1.07936520391e-05
1.01379546943e-05
9.49402483767e-06
8.86077357936e-06
8.23716306073e-06
7.62219758989e-06
7.01491488436e-06
6.4143773262e-06
5.81966310481e-06
5.22985702146e-06
4.64404035514e-06
4.06127819919e-06
3.4806001529e-06
2.90096431772e-06
2.32118154855e-06
1.73975245411e-06
1.15453866977e-06
5.62201253457e-07
6.15659760163e-08
0.000234093263533
0.000236786755166
0.000237142237269
0.000235645837804
0.000233301961422
0.000230726602519
0.000228212796206
0.000225868073463
0.000223713330708
0.000221735654208
0.000219912363121
0.000218220565167
0.000216640242126
0.000215154732593
0.000213750320196
0.000212415622396
0.000211141029675
0.00020991826141
0.000208740036237
0.000207599834316
0.000206491726927
0.00020541025296
0.000204350327023
0.000203307168428
0.000202276243746
0.000201253218064
0.000200233913815
0.00019921426937
0.000198190299986
0.000197158060926
0.000196113612689
0.000195052984106
0.000193972134491
0.000192866914143
0.000191733022448
0.000190565962753
0.000189360993034
0.000188113071258
0.000186816794179
0.000185466328222
0.000184055331064
0.000182576862673
0.000181023285123
0.000179386151622
0.000177656087416
0.000175822669065
0.000173874314676
0.000171798206635
0.000169580280113
0.000167205323716
0.000164657249347
0.000161919589813
0.000158976266765
0.000155812632857
0.000152416736334
0.000148780704852
0.000144902126765
0.000140785328675
0.000136442463372
0.000131894255921
0.000127170091425
0.000122307006557
0.000117347325187
0.000112335263332
0.000107313484387
0.000102320643077
9.73905008486e-05
9.25521764575e-05
8.78307911199e-05
8.32481532764e-05
7.88232478551e-05
7.4572486453e-05
7.0509729923e-05
6.66461025291e-05
6.29896341022e-05
5.95448277846e-05
5.63123199873e-05
5.32888078419e-05
5.0467343655e-05
4.7837974808e-05
4.53886047238e-05
4.31059086373e-05
4.09761590445e-05
3.89858731613e-05
3.712225605e-05
3.53734576989e-05
3.37286845798e-05
3.21782106148e-05
3.07133265289e-05
2.93262568538e-05
2.8010064248e-05
2.67585531251e-05
2.5566179112e-05
2.4427967343e-05
2.33394404727e-05
2.22965561537e-05
2.12956531554e-05
2.03334050975e-05
1.94067807448e-05
1.85130098843e-05
1.76495539079e-05
1.68140803507e-05
1.60044407357e-05
1.52186511857e-05
1.44548753398e-05
1.371140919e-05
1.29866675076e-05
1.22791715801e-05
1.15875380139e-05
1.0910468391e-05
1.02467395893e-05
9.59519459326e-06
8.95473363414e-06
8.3243055056e-06
7.70289889584e-06
7.0895335625e-06
6.48325111964e-06
5.88310508225e-06
5.28814951728e-06
4.69742500756e-06
4.10993923704e-06
3.52463659064e-06
2.94034531457e-06
2.35568009085e-06
1.76886196386e-06
1.17740603815e-06
5.77655989414e-07
6.76232063494e-08
0.000228457874329
0.000231101969208
0.000231939724899
0.000231178036825
0.000229550126001
0.000227574169086
0.000225538899166
0.000223576913044
0.000221735167311
0.000220020110435
0.000218421792401
0.000216925327802
0.000215515766396
0.000214179823704
0.000212906236614
0.00021168558587
0.000210509962127
0.00020937262998
0.000208267743068
0.000207190120167
0.000206135075728
0.000205098293744
0.000204075734001
0.000203063561576
0.000202058092553
0.000201055750617
0.000200053033655
0.000199046479929
0.000198032637102
0.000197008035617
0.000195969162105
0.000194912431285
0.000193834156477
0.000192730518054
0.000191597529028
0.000190430996905
0.000189226480759
0.000187979242284
0.00018668418933
0.00018533581017
0.000183928096483
0.000182454452941
0.000180907591378
0.000179279408366
0.000177560846712
0.000175741745184
0.000173810687047
0.000171754868375
0.000169560021536
0.000167210447283
0.000164689225804
0.000161978684762
0.000159061187925
0.000155920261827
0.000152542003793
0.000148916643117
0.000145040105409
0.000140915479152
0.00013655433841
0.000131977798974
0.000127216911641
0.000122311717755
0.000117308448378
0.00011225520819
0.000107197568417
0.000102175647945
9.72234235292e-05
9.23695028986e-05
8.76382364067e-05
8.30506913421e-05
7.86252841381e-05
7.43780842055e-05
7.03228355501e-05
6.64707194757e-05
6.28298806639e-05
5.94048262009e-05
5.61959213252e-05
5.3199227623e-05
5.04068213387e-05
4.7807556383e-05
4.53880959993e-05
4.31339887598e-05
4.103060456e-05
3.90638311715e-05
3.72205141202e-05
3.54886768727e-05
3.38575803078e-05
3.23176801122e-05
3.08605288637e-05
2.94786553699e-05
2.81654411586e-05
2.69150049633e-05
2.57220999281e-05
2.45820248357e-05
2.34905486988e-05
2.24438473075e-05
2.14384499923e-05
2.04711949685e-05
1.95391917494e-05
1.86397893741e-05
1.77705493743e-05
1.69292226219e-05
1.6113729337e-05
1.53221416868e-05
1.45526684975e-05
1.38036416967e-05
1.3073504164e-05
1.23607987204e-05
1.16641580316e-05
1.09822952211e-05
1.03139950211e-05
9.65810529117e-06
9.01352874845e-06
8.37921473791e-06
7.754150852e-06
7.13735414821e-06
6.52786160254e-06
5.92471921045e-06
5.32696871501e-06
4.73363010258e-06
4.14367641555e-06
3.55599447723e-06
2.96931994513e-06
2.38212704936e-06
1.79244412293e-06
1.19756494796e-06
5.9365503893e-07
7.611889423e-08
0.000223947109982
0.000226474025131
0.000227593004818
0.000227348343689
0.000226270265792
0.000224780883806
0.00022314653918
0.000221509348904
0.000219933474832
0.000218440717246
0.000217032390736
0.000215701209896
0.000214437187302
0.000213230292034
0.000212071475619
0.000210952929838
0.000209868016302
0.000208811080529
0.000207777247002
0.000206762234207
0.000205762201622
0.000204773628697
0.000203793221316
0.000202817840124
0.000201844445433
0.000200870054222
0.000199891708032
0.000198906442426
0.00019791125794
0.000196903099022
0.00019587883142
0.000194835219024
0.000193768899441
0.000192676357494
0.000191553895806
0.000190397601481
0.00018920330776
0.000187966549232
0.000186682508861
0.000185345954679
0.00018395116349
0.000182491828531
0.00018096094772
0.000179350689378
0.000177652233563
0.0001758555904
0.000173949403268
0.000171920756084
0.000169755021558
0.00016743581095
0.000164945111452
0.00016226371406
0.00015937202483
0.000156251297617
0.000152885226251
0.000149261729006
0.00014537472691
0.000141225811379
0.0001368258295
0.000132196349193
0.000127370534542
0.000122392404965
0.000117313504285
0.000112187268074
0.00010706320054
0.000101983345809
9.69819772012e-05
9.20871650404e-05
8.73225053034e-05
8.27084040984e-05
7.82628360886e-05
7.40016834429e-05
6.99387476124e-05
6.6085456342e-05
6.24502479754e-05
5.90377466342e-05
5.58480343799e-05
5.28763712657e-05
5.01135551922e-05
4.75468618811e-05
4.51613118854e-05
4.29409586738e-05
4.08699633793e-05
3.89333463481e-05
3.71174155453e-05
3.54099358404e-05
3.38001226048e-05
3.22785345704e-05
3.08369212186e-05
2.94680598939e-05
2.81656020473e-05
2.69239373812e-05
2.57380783472e-05
2.46035641129e-05
2.35163816662e-05
2.24729013054e-05
2.14698238843e-05
2.05041375027e-05
1.95730817349e-05
1.86741178417e-05
1.78049037459e-05
1.69632727944e-05
1.61472155532e-05
1.53548640291e-05
1.45844778459e-05
1.38344319921e-05
1.3103205834e-05
1.23893731378e-05
1.16915928898e-05
1.10086007283e-05
1.0339200821e-05
9.68225802849e-06
9.03669019129e-06
8.40146035466e-06
7.77556870028e-06
7.15804386211e-06
6.54793313973e-06
5.94429082546e-06
5.34616333184e-06
4.75256886837e-06
4.16246778174e-06
3.57471692709e-06
2.98799714855e-06
2.40069725623e-06
1.81073312919e-06
1.21528401e-06
6.10451398866e-07
8.71962889742e-08
0.000220277788482
0.000222663184435
0.00022393878008
0.000224057130891
0.000223400479708
0.000222305907884
0.000221009050473
0.000219650762542
0.000218304827244
0.000217004233251
0.000215759649754
0.000214570674392
0.00021343208752
0.000212337081234
0.000211278791969
0.00021025093494
0.00020924798959
0.000208265177486
0.000207298357199
0.000206343897237
0.000205398554672
0.000204459370055
0.000203523580941
0.000202588552626
0.00020165172336
0.000200710561737
0.000199762533333
0.000198805071281
0.000197835547557
0.000196851253543
0.000195849379118
0.000194826991796
0.000193781014905
0.000192708203895
0.000191605119862
0.000190468099224
0.000189293218308
0.000188076251297
0.000186812619532
0.00018549732965
0.000184124897264
0.000182689252187
0.00018118362035
0.000179600377281
0.000177930868377
0.000176165193877
0.000174291962455
0.000172298029673
0.000170168258097
0.000167885366429
0.000165429971615
0.000162780958542
0.000159916311004
0.000156814474855
0.000153456187538
0.000149826548184
0.000145917045684
0.00014172742263
0.000137267528994
0.000132559313984
0.000127638455094
0.000122554087938
0.000117364870392
0.000112131445282
0.000106908485812
0.000101740375217
9.66616137473e-05
9.16996066528e-05
8.68771894234e-05
8.22141952414e-05
7.77282982257e-05
7.34353571088e-05
6.93494099388e-05
6.54823355009e-05
6.18430727479e-05
5.84364977427e-05
5.52623878482e-05
5.23149837919e-05
4.95834184043e-05
4.70529101624e-05
4.47063526643e-05
4.25258798338e-05
4.04941095555e-05
3.85949508385e-05
3.68140045649e-05
3.51386609127e-05
3.35580083075e-05
3.20626480489e-05
3.06444781967e-05
2.9296483553e-05
2.80125491858e-05
2.67873032766e-05
2.56159886168e-05
2.44943593642e-05
2.34185987188e-05
2.23852534052e-05
2.13911813274e-05
2.0433509479e-05
1.95095997624e-05
1.86170209358e-05
1.77535252983e-05
1.69170290733e-05
1.61055956858e-05
1.53174213235e-05
1.45508223082e-05
1.3804223908e-05
1.3076150298e-05
1.23652154304e-05
1.16701146187e-05
1.09896166612e-05
1.03225563516e-05
9.66782721655e-06
9.02437431862e-06
8.39118691876e-06
7.7672907348e-06
7.15173940905e-06
6.54360460069e-06
5.94196376952e-06
5.34588414131e-06
4.75440037674e-06
4.16648190479e-06
3.58098346279e-06
2.99656900048e-06
2.41159526965e-06
1.82393935798e-06
1.23075903287e-06
6.28191263903e-07
1.00914550603e-07
0.000217258527482
0.000219498042191
0.000220852226514
0.000221224180477
0.000220889722237
0.000220114792522
0.000219102168132
0.000217984706494
0.000216839894018
0.00021570807659
0.000214607196323
0.00021354276275
0.000212513951333
0.000211517078787
0.000210547462643
0.000209600344259
0.000208671294372
0.000207756346415
0.000206851995703
0.000205955139605
0.000205062997887
0.000204173032459
0.000203282874953
0.000202390264893
0.000201492998362
0.00020058888777
0.00019967572796
0.000198751266516
0.000197813176299
0.000196859035432
0.000195886306967
0.000194892318802
0.000193874242889
0.000192829072803
0.000191753598684
0.000190644378447
0.000189497703935
0.000188309560301
0.000187075576438
0.000185790963511
0.000184450437762
0.000183048122553
0.000181577423378
0.000180030868368
0.000178399906392
0.000176674656243
0.000174843605753
0.000172893272001
0.000170807857317
0.000168568973676
0.000166155559171
0.000163544160767
0.000160709774261
0.000157627364924
0.000154274006823
0.000150631329284
0.000146687843115
0.000142440969391
0.000137899120928
0.000133084346759
0.000128035124971
0.000122807053151
0.000117468303493
0.000112089291309
0.000106731413127
0.000101441728162
9.62546934677e-05
9.11968377817e-05
8.62902682136e-05
8.15543849701e-05
7.7006741596e-05
7.26633493216e-05
6.85386514109e-05
6.46451816244e-05
6.09926064485e-05
5.75862016204e-05
5.44253867784e-05
5.15030750923e-05
4.88062146608e-05
4.63173462061e-05
4.40166336472e-05
4.18837874416e-05
3.9899507379e-05
3.80463365711e-05
3.63090070252e-05
3.46744348415e-05
3.31315198705e-05
3.16708651686e-05
3.02844873319e-05
2.89655539952e-05
2.77081622871e-05
2.65071595289e-05
2.53580016685e-05
2.42566429582e-05
2.31994504074e-05
2.21831373443e-05
2.12047115097e-05
2.02614340935e-05
1.93507870153e-05
1.84704464056e-05
1.76182607954e-05
1.67922328895e-05