/*--------------------------------*- C++ -*----------------------------------*\
  =========                 |
  \\      /  F ield         | OpenFOAM: The Open Source CFD Toolbox
   \\    /   O peration     | Website:  https://openfoam.org
    \\  /    A nd           | Version:  7
     \\/     M anipulation  |
\*---------------------------------------------------------------------------*/
FoamFile
{
    version     2.0;
    format      ascii;
    class       surfaceScalarField;
    location    "2340";
    object      phi;
}
// * * * * * * * * * * * * * * * * * * * * * * * * * * * * * * * * * * * * * //

dimensions      [0 3 -1 0 0 0 0];

internalField   nonuniform List<scalar> 
16192
(
6.9292908498e-10
2.4457091502e-10
4.93575540172e-10
1.99353550343e-10
3.64837109494e-10
1.28738436087e-10
2.82243325611e-10
8.25937890085e-11
2.27598466831e-10
5.46448638895e-11
1.8996001118e-10
3.76384608006e-11
1.62986258783e-10
2.69737576222e-11
1.42965215347e-10
2.00210487574e-11
1.27663035968e-10
1.53021848066e-11
1.15687552679e-10
1.19754888174e-11
1.06138485263e-10
9.54907303986e-12
9.84123703376e-11
7.72612062612e-12
9.20910757888e-11
6.32130031951e-12
8.68761898695e-11
5.21489173922e-12
8.25491844446e-11
4.32701128625e-12
7.89464603026e-11
3.6027300233e-12
7.59432382371e-11
3.00322796023e-12
7.34428632614e-11
2.50038086078e-12
7.13695165812e-11
2.07335255081e-12
6.96631311171e-11
1.70639129579e-12
6.82757683595e-11
1.38736854828e-12
6.71689870021e-11
1.10678708237e-12
6.63118995774e-11
8.570930871e-13
6.56797157027e-11
6.32189452063e-13
6.52526361537e-11
4.27085053306e-13
6.50150038538e-11
2.37637715564e-13
6.49546462335e-11
6.0362973048e-14
6.50623616809e-11
-1.07710160933e-13
6.53315153942e-11
-2.69148447104e-13
6.57577187203e-11
-4.2619806491e-13
6.63385737993e-11
-5.80849750055e-13
6.70734674012e-11
-7.34888164752e-13
6.79634011547e-11
-8.89928103055e-13
6.90108465121e-11
-1.04743942241e-12
7.02196142991e-11
-1.2087614274e-12
7.15947280085e-11
-1.37510682085e-12
7.31422901248e-11
-1.54755452566e-12
7.48693288472e-11
-1.72703029623e-12
7.67836116957e-11
-1.91427338979e-12
7.88934097633e-11
-2.10978742604e-12
8.12071950739e-11
-2.31377328538e-12
8.37332510132e-11
-2.52604238467e-12
8.64791756483e-11
-2.74590937644e-12
8.94512579774e-11
-2.9720652566e-12
9.26537115343e-11
-3.20243455873e-12
9.60877571826e-11
-3.43402468518e-12
9.97505609032e-11
-3.66278078042e-12
1.03634051913e-10
-3.88346615232e-12
1.07723673123e-10
-4.08959454901e-12
1.11997146918e-10
-4.2734455053e-12
1.16423371526e-10
-4.42619493761e-12
1.20961590706e-10
-4.5381884155e-12
1.25560994835e-10
-4.59937265213e-12
1.30160908985e-10
-4.59988234823e-12
1.34691697759e-10
-4.53075715055e-12
1.39076469017e-10
-4.38474029231e-12
1.43233587884e-10
-4.1570891701e-12
1.47079923985e-10
-3.84630821761e-12
1.50534646194e-10
-3.45469681496e-12
1.53523262746e-10
-2.98859418907e-12
1.55981496824e-10
-2.45821538193e-12
1.57858536239e-10
-1.87702480051e-12
1.5911923967e-10
-1.26069335526e-12
1.59745048777e-10
-6.25803733716e-13
1.59733602344e-10
1.14469144298e-14
1.59097298677e-10
6.36299379485e-13
1.57861219201e-10
1.23607049557e-12
1.56060838805e-10
1.80036708734e-12
1.53739839844e-10
2.32098162708e-12
1.5094821468e-10
2.79160435683e-12
1.47740697236e-10
3.20749364697e-12
1.44175463697e-10
3.56520743147e-12
1.40312986902e-10
3.86244896204e-12
1.36214922289e-10
4.0980357681e-12
1.3194292928e-10
4.27196374138e-12
1.27557387694e-10
4.38551253712e-12
1.23116033374e-10
4.4413259925e-12
1.18672598763e-10
4.44340749778e-12
1.14275579784e-10
4.39699343854e-12
1.0996725424e-10
4.30830188637e-12
1.05783046386e-10
4.18418627963e-12
1.01751281841e-10
4.03174518217e-12
9.78933207075e-11
3.85794403845e-12
9.42240106967e-11
3.66929515872e-12
9.07523740157e-11
3.4716240121e-12
8.74824331992e-11
3.26993019367e-12
8.44140888401e-11
3.06833564673e-12
8.15439789874e-11
2.87010284385e-12
7.88662714166e-11
2.67770209253e-12
7.63733594363e-11
2.4929077965e-12
7.40564492054e-11
2.31690716445e-12
7.19060379395e-11
2.15040908446e-12
6.99122910992e-11
1.99374538713e-12
6.80653301215e-11
1.84696004692e-12
6.63554448667e-11
1.70988472482e-12
6.47732439935e-11
1.58220057719e-12
6.33097563285e-11
1.463487522e-12
6.19564937698e-11
1.35326244491e-12
6.07054854297e-11
1.25100821356e-12
5.95492900991e-11
1.15619510761e-12
5.84809934543e-11
1.0682963168e-12
5.74941942204e-11
9.86798750603e-13
5.65829832219e-11
9.11210375801e-13
5.57419175202e-11
8.41064914453e-13
5.49659918668e-11
7.75924733551e-13
5.42506083548e-11
7.15382450735e-13
5.35915453655e-11
6.59061826715e-13
5.29849258112e-11
6.06618290618e-13
5.24271849501e-11
5.57739538424e-13
5.19150370722e-11
5.12146500018e-13
5.14454405613e-11
4.69595117371e-13
5.10155598321e-11
4.29879323218e-13
5.06227226073e-11
3.92835840783e-13
5.02643697294e-11
3.58351516363e-13
4.99379941075e-11
3.26374310615e-13
4.96410633662e-11
2.96929476598e-13
4.93709188233e-11
2.70143346101e-13
4.91246393063e-11
2.46278380325e-13
4.88988527907e-11
2.25785455139e-13
4.86894686894e-11
2.09383107388e-13
4.84912875924e-11
1.98180184959e-13
4.82974172723e-11
1.93869485253e-13
4.80983793087e-11
1.99037232115e-13
4.78807283798e-11
2.17650316844e-13
4.76249728928e-11
2.557550472e-13
4.73029291109e-11
3.22043546454e-13
4.68768948595e-11
4.260342099e-13
5.46599557772e-13
9.53414820199e-10
2.28656100536e-10
8.59645567793e-10
2.93122813549e-10
7.45073857811e-10
2.43310156422e-10
6.41843900209e-10
1.85823756592e-10
5.56584853507e-10
1.39903920574e-10
4.88097164496e-10
1.06126159899e-10
4.33361459669e-10
8.17094726884e-11
3.89427200477e-10
6.39553183628e-11
3.53882477492e-10
5.08469183764e-11
3.2487182228e-10
4.09861547712e-11
3.00996408673e-10
3.34244975235e-11
2.812043533e-10
2.75181869823e-11
2.64700074376e-10
2.28255903077e-11
2.50876044384e-10
1.90389328447e-11
2.3926321892e-10
1.59398478877e-11
2.29495455731e-10
1.33705043395e-11
2.21283976086e-10
1.12147186949e-11
2.14398920359e-10
9.3854476042e-12
2.08655901148e-10
7.8163826788e-12
2.039060916e-10
6.45621162393e-12
2.00028834961e-10
5.26463580818e-12
1.96926070454e-10
4.20956201752e-12
1.945180827e-10
3.26509106207e-12
1.92740226677e-10
2.41005546533e-12
1.91540380309e-10
1.62694118229e-12
1.9087694552e-10
9.01082033992e-13
1.90717267082e-10
2.20050737379e-13
1.91036372021e-10
-4.2680594822e-13
1.91815955585e-10
-1.04872296525e-12
1.93043557637e-10
-1.65379110411e-12
1.94711886405e-10
-2.2491694171e-12
1.96818252376e-10
-2.84124481809e-12
1.99364081214e-10
-3.43574722437e-12
2.02354477475e-10
-4.03782537436e-12
2.05797812897e-10
-4.65208570016e-12
2.0970531257e-10
-5.28259424942e-12
2.14090611603e-10
-5.93283991558e-12
2.18969252232e-10
-6.60565557917e-12
2.24358088985e-10
-7.30309275542e-12
2.3027456597e-10
-8.02624466232e-12
2.36735828193e-10
-8.77501306919e-12
2.43757627069e-10
-9.5478158431e-12
2.51352982167e-10
-1.03412358155e-11
2.59530566722e-10
-1.1149617719e-11
2.68292797324e-10
-1.19646295043e-11
2.77633629287e-10
-1.27748173939e-11
2.87536091832e-10
-1.35652005335e-11
2.97969641306e-10
-1.43169694639e-11
3.08887465966e-10
-1.5007369961e-11
3.20223937725e-10
-1.56098653218e-11
3.31892466739e-10
-1.60946698335e-11
3.43784062437e-10
-1.64297284274e-11
3.55766925244e-10
-1.65821789496e-11
3.67687375782e-10
-1.65202763723e-11
3.79372363568e-10
-1.62156893691e-11
3.90633686732e-10
-1.56460098407e-11
4.01273900197e-10
-1.47972520903e-11
4.11093702081e-10
-1.36660637395e-11
4.19900372339e-10
-1.22613260548e-11
4.27516616746e-10
-1.06048039632e-11
4.33788981706e-10
-8.73055306155e-12
4.38594927512e-10
-6.68295139366e-12
4.41847751165e-10
-4.51350639428e-12
4.43498869618e-10
-2.2769203748e-12
4.43537439722e-10
-2.7130174362e-14
4.4198775719e-10
2.18596644485e-12
4.38905188788e-10
4.31861542668e-12
4.34371440627e-10
6.33408451629e-12
4.28489797509e-10
8.20258760529e-12
4.21380728788e-10
9.90063059255e-12
4.13177998762e-10
1.14101769585e-11
4.04025226427e-10
1.2717930059e-11
3.94072727905e-10
1.38148959853e-11
3.83474448176e-10
1.46962634244e-11
3.72384829486e-10
1.53615308761e-11
3.60955558015e-10
1.58147339895e-11
3.49332247025e-10
1.60645893351e-11
3.37651223814e-10
1.6124386143e-11
3.26036653173e-10
1.60115231095e-11
3.14598235431e-10
1.57466826308e-11
3.03429661214e-10
1.53527276703e-11
2.92607909973e-10
1.48534678436e-11
2.82193372567e-10
1.42724570489e-11
2.72230687753e-10
1.36319596012e-11
2.62750123855e-10
1.29521713123e-11
2.53769314741e-10
1.22507261676e-11
2.4529516795e-10
1.15424723975e-11
2.3732579171e-10
1.08394717488e-11
2.29852326411e-10
1.01511623675e-11
2.22860605107e-10
9.48462598109e-12
2.16332602516e-10
8.84490816911e-12
2.10247658574e-10
8.23535260324e-12
2.04583482241e-10
7.65792214769e-12
1.99316952754e-10
7.11349050974e-12
1.94424742566e-10
6.6020962036e-12
1.89883787927e-10
6.12315660042e-12
1.85671633339e-10
5.67564343365e-12
1.81766673477e-10
5.25822342832e-12
1.78148313955e-10
4.86936857558e-12
1.74797068591e-10
4.50744095317e-12
1.71694608357e-10
4.1707566553e-12
1.68823773745e-10
3.85763306565e-12
1.66168560392e-10
3.56642305224e-12
1.63714085046e-10
3.29553921556e-12
1.61446537694e-10
3.04347071966e-12
1.59353123595e-10
2.80879489269e-12
1.57421998183e-10
2.59018535047e-12
1.55642196176e-10
2.38641821502e-12
1.54003555744e-10
2.19637775522e-12
1.52496637165e-10
2.01906276559e-12
1.51112634976e-10
1.85359494874e-12
1.49843281182e-10
1.69923074673e-12
1.48680736433e-10
1.55537824823e-12
1.47617464419e-10
1.42162123989e-12
1.46646083529e-10
1.29775299127e-12
1.45759187663e-10
1.18382322677e-12
1.44949126201e-10
1.08020280656e-12
1.44207730539e-10
9.87672158927e-13
1.43525973008e-10
9.07541239227e-13
1.42893544007e-10
8.41810502056e-13
1.42298340489e-10
7.93382263708e-13
1.41725883931e-10
7.66324793911e-13
1.41158759319e-10
7.66160829229e-13
1.40576361711e-10
8.00047183552e-13
1.39955752876e-10
8.76363445035e-13
1.39275697496e-10
1.00209878941e-12
1.38530024188e-10
1.17170759779e-12
1.32668634215e-12
9.76222545712e-10
1.89933560227e-10
9.62947885753e-10
3.06397484012e-10
9.0597258897e-10
3.00285463195e-10
8.33457028597e-10
2.58339326648e-10
7.60398161487e-10
2.12962797379e-10
6.93212064365e-10
1.73312266811e-10
6.33974923332e-10
1.40946623654e-10
5.82796262946e-10
1.15133988835e-10
5.38997246224e-10
9.46459453396e-11
5.01659646517e-10
7.83237648515e-11
4.69864347714e-10
6.52198068178e-11
4.42783128389e-10
5.45994168833e-11
4.19704135215e-10
4.59045941231e-11
4.00029367731e-10
3.87137110016e-11
3.83261890841e-10
3.27073354608e-11
3.6899061993e-10
2.76417859053e-11
3.56875895173e-10
2.33294540574e-11
3.46636952804e-10
1.96244004835e-11
3.38041485407e-10
1.64118604726e-11
3.30897120445e-10
1.36005868166e-11
3.25044532955e-10
1.11172333475e-11
3.20351899992e-10
8.90220479496e-12
3.16710436891e-10
6.90656373308e-12
3.14030797561e-10
5.08970407454e-12
3.12240162796e-10
3.41758493864e-12
3.11279875525e-10
1.86137797735e-12
3.11103511322e-10
3.96423319258e-13
3.11675294697e-10
-9.9858124159e-13
3.12968788019e-10
-2.34220844227e-12
3.14965796016e-10
-3.65079145928e-12
3.17655437665e-10
-4.93880351727e-12
3.21033342e-10
-6.21914161498e-12
3.25100930184e-10
-7.50332771206e-12
3.29864747992e-10
-8.80163518664e-12
3.35335814359e-10
-1.01231435385e-11
3.41528950256e-10
-1.14757208835e-11
3.48462051126e-10
-1.28659304978e-11
3.56155262656e-10
-1.42988555423e-11
3.64630017329e-10
-1.57778342557e-11
3.739078855e-10
-1.73040977743e-11
3.84009193538e-10
-1.88763038349e-11
3.94951361275e-10
-2.0489963831e-11
4.06746915961e-10
-2.2136768002e-11
4.1940114977e-10
-2.3803826089e-11
4.32909407469e-10
-2.54728586684e-11
4.4725402067e-10
-2.71193989011e-11
4.62400949089e-10
-2.87120941192e-11
4.78296246907e-10
-3.02122294178e-11
4.94862542771e-10
-3.15736251544e-11
5.11995799408e-10
-3.27430787822e-11
5.29562692596e-10
-3.36615177792e-11
5.47399005354e-10
-3.4265994366e-11
5.65309453002e-10
-3.44925788558e-11
5.83069324647e-10
-3.42801000198e-11
6.00428234984e-10
-3.35745523179e-11
6.17116131192e-10
-3.23338601026e-11
6.32851497376e-10
-3.05325748119e-11
6.47351460069e-10
-2.81659863948e-11
6.60343228109e-10
-2.52530585859e-11
6.71576025823e-10
-2.18375715823e-11
6.8083244108e-10
-1.79869445851e-11
6.87938005904e-10
-1.37884994288e-11
6.92767951362e-10
-9.34344255752e-12
6.9525048636e-10
-4.7594536763e-12
6.95366553546e-10
-1.43203314797e-13
6.93146623661e-10
4.40588309362e-12
6.8866548885e-10
8.7997301014e-12
6.82036078773e-10
1.29634682939e-11
6.73403110155e-10
1.68355244791e-11
6.62937077317e-10
2.03666272521e-11
6.50828775391e-10
2.35184392295e-11
6.37284314863e-10
2.62623486057e-11
6.22520450491e-10
2.85787170861e-11
6.06760012819e-10
3.04566576485e-11
5.90227276077e-10
3.18942249322e-11
5.73143208708e-10
3.28987603412e-11
5.5572069497e-10
3.34870644345e-11
5.38159950472e-10
3.36850949836e-11
5.20644434503e-10
3.35270068249e-11
5.03337565557e-10
3.30535230087e-11
4.86380472742e-10
3.23097957474e-11
4.69890892378e-10
3.13430272985e-11
4.5396318252e-10
3.02001497427e-11
4.38669312129e-10
2.89258163571e-11
4.24060606973e-10
2.75608661193e-11
4.10170004622e-10
2.61413211033e-11
3.97014580715e-10
2.46978914964e-11
3.84598143079e-10
2.32559067688e-11
3.72913738452e-10
2.18355662261e-11
3.61945964862e-10
2.04524002376e-11
3.51673027545e-10
1.91178472726e-11
3.42068510634e-10
1.78398720565e-11
3.33102863695e-10
1.66235721303e-11
3.24744618454e-10
1.54717390045e-11
3.16961362153e-10
1.43853557926e-11
3.09720497814e-10
1.33640240514e-11
3.02989823689e-10
1.24063203938e-11
2.96737961886e-10
1.15100876574e-11
2.90934664322e-10
1.06726681238e-11
2.85551019866e-10
9.89108688213e-12
2.80559583799e-10
9.16219370274e-12
2.75934446391e-10
8.48277094111e-12
2.71651255016e-10
7.8496144365e-12
2.67687200579e-10
7.25959321405e-12
2.64020977321e-10
6.70969316479e-12
2.60632722178e-10
6.1970488746e-12
2.57503938765e-10
5.71896733415e-12
2.54617408765e-10
5.27294654986e-12
2.51957092797e-10
4.85669189927e-12
2.49508020938e-10
4.46813267196e-12
2.47256172544e-10
4.10544132716e-12
2.45188343339e-10
3.76705789741e-12
2.43291997229e-10
3.45172231788e-12
2.41555098819e-10
3.15851763888e-12
2.39965922228e-10
2.88692763935e-12
2.38512830915e-10
2.63691267034e-12
2.37184023984e-10
2.40900796877e-12
2.35967246209e-10
2.20444826387e-12
2.34849465106e-10
2.02532079363e-12
2.33816530941e-10
1.87474323745e-12
2.32852862809e-10
1.75704911574e-12
2.31941257449e-10
1.67792904244e-12
2.31063022504e-10
1.64439489698e-12
2.30198832788e-10
1.66423630121e-12
2.29331047506e-10
1.74414843031e-12
2.2844874649e-10
1.88439975746e-12
2.27555844017e-10
2.06461016946e-12
2.20968122874e-12
9.71739835278e-10
1.55693730218e-10
9.86561851492e-10
2.915754781e-10
9.67897258957e-10
3.18950065521e-10
9.27364285908e-10
2.98872309113e-10
8.7682213955e-10
2.63504953125e-10
8.23799613505e-10
2.26334802317e-10
7.72453701569e-10
1.92292545168e-10
7.24824076529e-10
1.62763623582e-10
6.81729955804e-10
1.37740075895e-10
6.43326621751e-10
1.16727108837e-10
6.0943114559e-10
9.91152929928e-11
5.79706164255e-10
8.43244082848e-11
5.53760194121e-10
7.18505743506e-11
5.31200160879e-10
6.12737543328e-11
5.11657138735e-10
5.22503676622e-11
4.94797393029e-10
4.45015415987e-11
4.80325591202e-10
3.78012657684e-11
4.6798402747e-10
3.19659739546e-11
4.5754998305e-10
2.68459144451e-11
4.488323683e-10
2.23182108857e-11
4.41668246049e-10
1.82813646377e-11
4.35919531531e-10
1.46509280236e-11
4.31469998317e-10
1.13561052825e-11
4.28222630801e-10
8.33707950276e-12
4.26097318259e-10
5.54290493032e-12
4.25028863415e-10
2.92983977133e-12
4.24965269271e-10
4.60023891197e-13
4.25866265142e-10
-1.89957122323e-12
4.27702030847e-10
-4.17796878991e-12
4.30452086405e-10
-6.40084217536e-12
4.34104310486e-10
-8.59102322172e-12
4.38654052503e-10
-1.07688796561e-11
4.4410330503e-10
-1.29525765588e-11
4.50459902463e-10
-1.51582291096e-11
4.57736710881e-10
-1.73999484477e-11
4.65950771674e-10
-1.96897779761e-11
4.75122358993e-10
-2.20375136913e-11
4.85273907533e-10
-2.44503992737e-11
4.96428764081e-10
-2.69326850234e-11
5.0860971327e-10
-2.94850399101e-11
5.21837226944e-10
-3.21038088674e-11
5.36127387888e-10
-3.47801142344e-11
5.51489445021e-10
-3.74988124018e-11
5.6792297001e-10
-4.02373358833e-11
5.85414607843e-10
-4.29644786284e-11
6.03934448679e-10
-4.56392190224e-11
6.23432097759e-10
-4.82097195578e-11
6.43832585405e-10
-5.06126904843e-11
6.65032338326e-10
-5.27733486472e-11
6.86895520969e-10
-5.46062293181e-11
7.09251139516e-10
-5.60171018193e-11
7.31891364912e-10
-5.69061832169e-11
7.54571553551e-10
-5.71727293901e-11
7.77012407227e-10
-5.67209145918e-11
7.9890460583e-10
-5.54667115035e-11
8.19916071123e-10
-5.3345286435e-11
8.3970178923e-10
-5.03182553033e-11
8.57915850211e-10
-4.63800120487e-11
8.74225061902e-10
-4.15622382371e-11
8.88323176276e-10
-3.59356581697e-11
8.99944472712e-10
-2.96082183696e-11
9.08875282548e-10
-2.27192924606e-11
9.14962155398e-10
-1.54303049428e-11
9.18115847896e-10
-7.91314228519e-12
9.18311070698e-10
-3.38428783232e-13
9.1558269311e-10
7.13425170483e-12
9.10019589867e-10
1.43628184928e-11
9.01757361031e-10
2.12256770001e-11
8.90970870538e-10
2.76219903001e-11
8.77867163247e-10
3.34703061873e-11
8.62678955321e-10
3.87066160614e-11
8.4565863576e-10
4.32826353311e-11
8.27072577064e-10
4.71647422004e-11
8.07195518957e-10
5.033368239e-11
7.86304844848e-10
5.278486676e-11
7.64674700208e-10
5.45288745515e-11
7.42570071262e-10
5.55916654169e-11
7.20241101894e-10
5.60140393397e-11
6.97918021585e-10
5.58500653935e-11
6.75807056588e-10
5.5164469732e-11
6.54087602238e-10
5.40292353391e-11
6.32910781432e-10
5.25198368092e-11
6.12399349088e-10
5.07115740858e-11
5.9264876619e-10
4.86763943156e-11
5.73729181826e-10
4.64804482967e-11
5.55688031216e-10
4.41824719398e-11
5.38552971522e-10
4.18329534548e-11
5.22334919445e-10
3.94739627713e-11
5.07031009654e-10
3.71394812275e-11
4.92627348943e-10
3.48560670855e-11
4.79101490679e-10
3.26437122686e-11
4.66424593696e-10
3.05167760655e-11
4.54563259331e-10
2.84849135539e-11
4.43481059982e-10
2.6553945223e-11
4.33139784929e-10
2.47266373477e-11
4.23500435226e-10
2.30033797464e-11
4.14524001769e-10
2.13827592333e-11
4.06172059739e-10
1.98620343912e-11
3.98407210477e-10
1.84375213798e-11
3.91193398339e-10
1.71049022902e-11
3.84496126701e-10
1.58594679071e-11
3.78282593365e-10
1.46963061687e-11
3.72521762453e-10
1.36104466163e-11
3.67184386475e-10
1.25969698882e-11
3.62242989714e-10
1.16510901208e-11
3.57671821387e-10
1.0768216957e-11
3.53446785189e-10
9.94400292191e-12
3.49545349734e-10
9.17438108919e-12
3.459464431e-10
8.45559738314e-12
3.42630333047e-10
7.78424139268e-12
3.39578493581e-10
7.1572793388e-12
3.36773457264e-10
6.57209268135e-12
3.3419865215e-10
6.02652586422e-12
3.31838221529e-10
5.51894669092e-12
3.29676824837e-10
5.04832279161e-12
3.27699418769e-10
4.61431724683e-12
3.25891019967e-10
4.21740534924e-12
3.2423645511e-10
3.85901177856e-12
3.22720113021e-10
3.54166163286e-12
3.2132572857e-10
3.26912653933e-12
3.20036254469e-10
3.04652218667e-12
3.1883391979e-10
2.88026283376e-12
3.17700640277e-10
2.77767370845e-12
3.16619033577e-10
2.74584253573e-12
3.15574362015e-10
2.78881979042e-12
3.14557472976e-10
2.90128879965e-12
3.13566939027e-10
3.05514422751e-12
3.17605519868e-12
9.63912055275e-10
1.29281680267e-10
9.87570300347e-10
2.67917243323e-10
9.89501697601e-10
3.17018678024e-10
9.717940649e-10
3.16579951207e-10
9.41395001135e-10
2.93904026248e-10
9.04352145548e-10
2.63377667321e-10
8.64861579594e-10
2.31783120645e-10
8.25571744862e-10
2.02053467953e-10
7.88039949566e-10
1.75271880937e-10
7.53105957613e-10
1.51661110618e-10
7.21156605208e-10
1.31064655285e-10
6.92302636907e-10
1.13178386505e-10
6.66493273851e-10
9.76599473284e-11
6.43588895231e-10
8.41781428455e-11
6.23406305405e-10
7.24329673207e-11
6.05746357457e-10
6.2161499279e-11
5.9041035942e-10
5.31372733998e-11
5.77209425331e-10
4.51669174499e-11
5.65969440332e-10
3.80859086182e-11
5.56533339015e-10
3.17543210858e-11
5.48761772084e-10
2.60529401081e-11
5.42532836781e-10
2.08798714562e-11
5.3774129201e-10
1.61476577179e-11
5.34297516984e-10
1.17808616611e-11
5.32126369577e-10
7.71405888298e-12
5.31166035193e-10
3.89018005478e-12
5.3136691567e-10
2.59148625404e-13
5.32690580605e-10
-3.22323167785e-12
5.35108784986e-10
-6.5961694393e-12
5.38602555609e-10
-9.8946098286e-12
5.43161328897e-10
-1.31497942764e-11
5.48782122378e-10
-1.63896716081e-11
5.5546871794e-10
-1.96391712193e-11
5.63230830609e-10
-2.2920341408e-11
5.72083232896e-10
-2.62523507506e-11
5.82044800575e-10
-2.96513458923e-11
5.93137441819e-10
-3.31301551738e-11
6.05384867273e-10
-3.66978247271e-11
6.18811155024e-10
-4.03589722497e-11
6.33439061255e-10
-4.4112944791e-11
6.49288026275e-10
-4.79527713804e-11
6.66371827227e-10
-5.18639111924e-11
6.8469583536e-10
-5.5822814721e-11
7.04253849125e-10
-5.97953417036e-11
7.25024497642e-10
-6.37351167919e-11
7.46967245157e-10
-6.75819535468e-11
7.70018078881e-10
-7.12605374891e-11
7.94085031921e-10
-7.46796248348e-11
8.19043778797e-10
-7.77320739329e-11
8.44733638084e-10
-8.02960641873e-11
8.70954412545e-10
-8.22378492143e-11
8.97464573022e-10
-8.34163142361e-11
9.23981323014e-10
-8.36894479113e-11
9.5018304382e-10
-8.29226023701e-11
9.75714501102e-10
-8.09981348037e-11
1.00019499883e-09
-7.7825749913e-11
1.0232294141e-09
-7.33526368922e-11
1.04442175778e-09
-6.75723235212e-11
1.063390582e-09
-6.05310327248e-11
1.07978519108e-09
-5.23302409624e-11
1.09330123764e-09
-4.31242430109e-11
1.10369402996e-09
-3.3112067952e-11
1.11078795059e-09
-2.25242143587e-11
1.11448094855e-09
-1.16061348706e-11
1.11474402752e-09
-6.01508212339e-13
1.11161663603e-09
1.02616372012e-11
1.10519945366e-09
2.07799897136e-11
1.09564606363e-09
3.07790513482e-11
1.08315458872e-09
4.01134456695e-11
1.06795986275e-09
4.86650095885e-11
1.0503262838e-09
5.63401702875e-11
1.03054122375e-09
6.30676694306e-11
1.00890873424e-09
6.87972054582e-11
9.85743265155e-10
7.34991257952e-11
9.6136318226e-10
7.71649253221e-11
9.36084024856e-10
7.98080096424e-11
9.10211650364e-10
8.14640201404e-11
8.84035608948e-10
8.2190063919e-11
8.57823207126e-10
8.20624535584e-11
8.31814713394e-10
8.11729530932e-11
8.06220036702e-10
7.9623904943e-11
7.81217017031e-10
7.75228525535e-11
7.56951267681e-10
7.49773224695e-11
7.3353735072e-10
7.2090312989e-11
7.11060974904e-10
6.89568281823e-11
6.89581878833e-10
6.56615740682e-11
6.69137085724e-10
6.22777542384e-11
6.49744269108e-10
5.88667882888e-11
6.31405033072e-10
5.5478727032e-11
6.14107973048e-10
5.21531373868e-11
5.97831437083e-10
4.89202587151e-11
5.8254594947e-10
4.58022740729e-11
5.68216289531e-10
4.28145835728e-11
5.54803238668e-10
3.99670056431e-11
5.42265021691e-10
3.72648632156e-11
5.3055847474e-10
3.47099347998e-11
5.19639974791e-10
3.23012664278e-11
5.09466165057e-10
3.0035850466e-11
4.99994508667e-10
2.79091832026e-11
4.91183699701e-10
2.59157157889e-11
4.82993957329e-10
2.40492139539e-11
4.75387225009e-10
2.23030413524e-11
4.6832729344e-10
2.06703803097e-11
4.61779862593e-10
1.91444021865e-11
4.55712555475e-10
1.77183981016e-11
4.50094893551e-10
1.63858792297e-11
4.44898241751e-10
1.51406546411e-11
4.40095728898e-10
1.39768935017e-11
4.35662147958e-10
1.28891776011e-11
4.31573838956e-10
1.18725494516e-11
4.27808556473e-10
1.09225607211e-11
4.24345322596e-10
1.00353253497e-11
4.21164265783e-10
9.20758140808e-12
4.18246445827e-10
8.43676535373e-12
4.15573665594e-10
7.72110174118e-12
4.13128271383e-10
7.05971020496e-12
4.10892946359e-10
6.45272917314e-12
4.08850505859e-10
5.90145114229e-12
4.06983710769e-10
5.40845566519e-12
4.05275126403e-10
4.9777099325e-12
4.03707071115e-10
4.61457660473e-12
4.0226172121e-10
4.32561199091e-12
4.00921463162e-10
4.11793116995e-12
3.99669590224e-10
3.99771509462e-12
3.98491347307e-10
3.96706255783e-12
3.97374850336e-10
4.01778580278e-12
3.96309673662e-10
4.12032102029e-12
4.20810639441e-12
9.57510871374e-10
1.09270814275e-10
9.82407026114e-10
2.43021098792e-10
9.94738414891e-10
3.04687298915e-10
9.91768769142e-10
3.1954960624e-10
9.76651120846e-10
3.09021683791e-10
9.53493054298e-10
2.86535743182e-10
9.25751023068e-10
2.59525161297e-10
8.95961970695e-10
2.31842529864e-10
8.65866584171e-10
2.05367277096e-10
8.36602359185e-10
1.80925345313e-10
8.0887568403e-10
1.58791340194e-10
7.83094899359e-10
1.38959180944e-10
7.59467392962e-10
1.21287463479e-10
7.3806839183e-10
1.05577153684e-10
7.18888831517e-10
9.16125372556e-11
7.01868226332e-10
7.91821139627e-11
6.8691697307e-10
6.80885359924e-11
6.73931294563e-10
5.815260507e-11
6.62803098752e-10
4.92141132702e-11
6.53426349817e-10
4.1131078528e-11
6.45701062769e-10
3.37782352661e-11
6.39535690747e-10
2.70452511184e-11
6.34848434971e-10
2.08349205948e-11
6.31567840575e-10
1.50614625414e-11
6.29632925898e-10
9.64897935797e-12
6.28993012361e-10
4.53009862852e-12
6.29607366361e-10
-3.55201161447e-13
6.3144472264e-10
-5.06058462503e-12
6.34482734751e-10
-9.63417914243e-12
6.38707384332e-10
-1.41192579544e-11
6.44112352221e-10
-1.85547616672e-11
6.50698352564e-10
-2.29756723928e-11
6.58472421283e-10
-2.74132412712e-11
6.67447142942e-10
-3.18950652069e-11
6.77639793734e-10
-3.64450043705e-11
6.89071372465e-10
-4.10829279778e-11
7.01765485929e-10
-4.58242723161e-11
7.15747049895e-10
-5.06793924475e-11
7.31040762304e-10
-5.5652688206e-11
7.47669301582e-10
-6.0741487083e-11
7.65651200982e-10
-6.59346729152e-11
7.84998350775e-10
-7.12110618638e-11
8.05713085389e-10
-7.65375485883e-11
8.27784824822e-10
-8.18670783893e-11
8.51186261294e-10
-8.71365481844e-11
8.75869117251e-10
-9.22648017829e-11
9.01759552466e-10
-9.71509621167e-11
9.28753369932e-10
-1.01673428666e-10
9.5671126205e-10
-1.056899493e-10
9.8545444722e-10
-1.09039229484e-10
1.01476115884e-09
-1.11544537952e-10
1.04436454365e-09
-1.13019673334e-10
1.07395257292e-09
-1.13277448971e-10
1.10317053947e-09
-1.12140538593e-10
1.13162658601e-09
-1.09454149474e-10
1.15890049595e-09
-1.0509962709e-10
1.18455570338e-09
-9.90078115095e-11
1.20815417705e-09
-9.11707652898e-11
1.22927349403e-09
-8.16503197753e-11
1.24752500587e-09
-7.05817259645e-11
1.26257151297e-09
-5.81707273875e-11
1.27414245297e-09
-4.46829902195e-11
1.28204459326e-09
-3.04263424823e-11
1.28616687817e-09
-1.57284134534e-11
1.28647934113e-09
-9.13970589622e-13
1.28302730359e-09
1.37136698776e-11
1.27592280932e-09
2.7884474201e-11
1.26533513325e-09
4.1366713362e-11
1.25148158356e-09
5.39669777929e-11
1.23461913668e-09
6.55274362414e-11
1.21503694804e-09
7.59223369713e-11
1.19304950353e-09
8.50550911947e-11
1.16899005888e-09
9.28566275096e-11
1.14320400624e-09
9.92851568348e-11
1.11604189584e-09
1.04327015853e-10
1.08785202818e-09
1.07997859778e-10
1.05897279073e-09
1.10343242882e-10
1.02972516401e-09
1.11437679062e-10
1.00040596931e-09
1.11381639965e-10
9.71282417537e-10
1.10296499928e-10
9.42588356636e-10
1.08317964163e-10
9.14522371093e-10
1.05588839511e-10
8.87247641439e-10
1.02252056366e-10
8.60893288498e-10
9.84446726888e-11
8.35556829842e-10
9.42932957348e-11
8.11307359322e-10
8.99110552423e-11
7.88189099721e-10
8.53960258376e-11
7.66225047428e-10
8.08308535344e-11
7.45420503957e-10
7.62832840229e-11
7.25766359364e-10
7.18072957208e-11
7.07242049985e-10
6.74445817369e-11
6.89818156392e-10
6.3226180941e-11
6.73458637852e-10
5.91741147866e-11
6.58122719448e-10
5.53029359406e-11
6.437664597e-10
5.16211339345e-11
6.3034403248e-10
4.81323719743e-11
6.1780875887e-10
4.48365489183e-11
6.06113923962e-10
4.17306931594e-11
5.95213411346e-10
3.88097025171e-11
5.85062184921e-10
3.60669478587e-11
5.75616644229e-10
3.34947592921e-11
5.66834875962e-10
3.10848133348e-11
5.58676820975e-10
2.8828438164e-11
5.51104372958e-10
2.67168523086e-11
5.44081422181e-10
2.47413503148e-11
5.37573855159e-10
2.28934471067e-11
5.31549518997e-10
2.11649911708e-11
5.25978157197e-10
1.95482552621e-11
5.20831322246e-10
1.80360121869e-11
5.16082268846e-10
1.66216022328e-11
5.11705830689e-10
1.52989980706e-11
5.07678282829e-10
1.40628722696e-11
5.03977191243e-10
1.29086719726e-11
5.00581251033e-10
1.1832704498e-11
4.97470115141e-10
1.08322365612e-11
4.94624216368e-10
9.90560792107e-12
4.92024587498e-10
9.05235702606e-12
4.89652687231e-10
8.27335044248e-12
4.87490244301e-10
7.57089769212e-12
4.85519138197e-10
6.94881520356e-12
4.837213424e-10
6.41237165297e-12
4.82078962025e-10
5.96799171756e-12
4.80574393861e-10
5.62249882206e-12
4.7919059529e-10
5.38151333181e-12
4.77911289955e-10
5.24636776536e-12
4.76720452222e-10
5.2086235763e-12
4.75599304522e-10
5.2414688401e-12
5.2894436759e-12
9.52884486122e-10
9.3886333443e-11
9.76321038326e-10
2.19584556666e-10
9.93466205283e-10
2.87542141512e-10
9.9961618988e-10
3.13399630821e-10
9.95406782332e-10
3.13231100479e-10
9.83252364448e-10
2.98690170277e-10
9.65698039309e-10
2.7707949576e-10
9.44877738139e-10
2.52662840474e-10
9.22422730333e-10
2.27822294439e-10
8.9951882403e-10
2.03829261221e-10
8.76997350728e-10
1.81312823141e-10
8.55421351884e-10
1.6053518944e-10
8.35156605734e-10
1.41552219258e-10
8.16426854341e-10
1.24306914649e-10
7.99355497769e-10
1.08683903309e-10
7.83996528658e-10
9.45410924205e-11
7.70357211331e-10
8.17278624888e-11
7.58414549839e-10
7.00952754993e-11
7.48127139666e-10
5.95015320936e-11
7.39443616993e-10
4.98146094994e-11
7.32308616262e-10
4.09132438742e-11
7.26666912595e-10
3.26869621663e-11
7.22466248143e-10
2.50355918528e-11
7.19659208265e-10
1.78685085709e-11
7.18204414249e-10
1.11037787878e-11
7.18067225696e-10
4.6672917764e-12
7.19220091371e-10
-1.50806313561e-12
7.21642640878e-10
-7.48313139449e-12
7.25321592913e-10
-1.33131294598e-11
7.30250524837e-10
-1.90481892237e-11
7.36429525182e-10
-2.47337624403e-11
7.43864744147e-10
-3.04108928683e-11
7.52567844942e-10
-3.61163446248e-11
7.62555349425e-10
-4.188257323e-11
7.73847863505e-10
-4.77375228665e-11
7.86469160577e-10
-5.37042301933e-11
8.00445094642e-10
-5.98002120585e-11
8.15802308632e-10
-6.60366124086e-11
8.32566697824e-10
-7.24170833786e-11
8.50761583511e-10
-7.89363784329e-11
8.70405548717e-10
-8.55786431021e-11
8.91509886905e-10
-9.23154039649e-11
9.14075617651e-10
-9.91032817754e-11
9.38090032537e-10
-1.05881493847e-10
9.6352275309e-10
-1.12569267062e-10
9.90321314607e-10
-1.19063359037e-10
1.01840633981e-09
-1.25235980184e-10