/*--------------------------------*- C++ -*----------------------------------*\
  =========                 |
  \\      /  F ield         | OpenFOAM: The Open Source CFD Toolbox
   \\    /   O peration     | Website:  https://openfoam.org
    \\  /    A nd           | Version:  7
     \\/     M anipulation  |
\*---------------------------------------------------------------------------*/
FoamFile
{
    version     2.0;
    format      ascii;
    class       volVectorField;
    location    "2340";
    object      U;
}
// * * * * * * * * * * * * * * * * * * * * * * * * * * * * * * * * * * * * * //

dimensions      [0 1 -1 0 0 0 0];

internalField   nonuniform List<vector> 
8192
(
(0.00104347461439 0.000156525385613 0)
(0.000759362960097 0.000127586272219 0)
(0.000549384095786 8.23925990954e-05 0)
(0.000414131478467 5.28600249654e-05 0)
(0.000326298747162 3.49727128893e-05 0)
(0.000267237425927 2.40886149124e-05 0)
(0.000225885612776 1.72632048782e-05 0)
(0.000195808943444 1.28134712048e-05 0)
(0.000173202080842 9.79339827622e-06 0)
(0.000155744376734 7.66431284312e-06 0)
(0.000141968664283 6.11140674551e-06 0)
(0.000130912547584 4.94471720072e-06 0)
(0.000121922205521 4.04563220449e-06 0)
(0.000114539050021 3.3375307131e-06 0)
(0.000108432239561 2.7692872232e-06 0)
(0.000103357212638 2.30574721491e-06 0)
(9.91294070654e-05 1.92206589455e-06 0)
(9.5607104959e-05 1.6002437509e-06 0)
(9.26799230993e-05 1.32694563252e-06 0)
(9.02608945269e-05 1.09209042931e-06 0)
(8.8280895665e-05 8.87915870902e-07 0)
(8.66846434315e-05 7.08343732717e-07 0)
(8.54277674109e-05 5.48539575744e-07 0)
(8.44746337792e-05 4.0460124932e-07 0)
(8.37967051881e-05 2.73334434116e-07 0)
(8.33712896048e-05 1.52088137961e-07 0)
(8.31805760558e-05 3.86323027507e-08 0)
(8.32108850652e-05 -6.89345029971e-08 0)
(8.3452081328e-05 -1.72255006146e-07 0)
(8.38971098333e-05 -2.72766761543e-07 0)
(8.45416272125e-05 -3.71743840035e-07 0)
(8.53837063683e-05 -4.70328425441e-07 0)
(8.64235958758e-05 -5.69553985955e-07 0)
(8.76635185067e-05 -6.70361230342e-07 0)
(8.91074949191e-05 -7.73607313538e-07 0)
(9.07611790768e-05 -8.80068365344e-07 0)
(9.26316916053e-05 -9.9043489642e-07 0)
(9.47274361421e-05 -1.10529938959e-06 0)
(9.70578819475e-05 -1.22513496946e-06 0)
(9.96332937337e-05 -1.35026395267e-06 0)
(0.000102464387096 -1.48081490264e-06 0)
(0.000105561885496 -1.61666712619e-06 0)
(0.000108935953063 -1.75738200092e-06 0)
(0.00011259547752 -1.90212176422e-06 0)
(0.000116547180487 -2.04955811759e-06 0)
(0.000120794539979 -2.19777579852e-06 0)
(0.000125336523575 -2.34417969947e-06 0)
(0.000130166152202 -2.48541833748e-06 0)
(0.000135268944023 -2.61734051137e-06 0)
(0.000140621324826 -2.73500512339e-06 0)
(0.000146189131804 -2.83276476007e-06 0)
(0.000151926375828 -2.90444058592e-06 0)
(0.000157774454746 -2.94359849736e-06 0)
(0.000163662018445 -2.94392470287e-06 0)
(0.000169505668317 -2.89968457636e-06 0)
(0.000175211626737 -2.80623378708e-06 0)
(0.000180678436417 -2.66053706886e-06 0)
(0.000185800647596 -2.46163725927e-06 0)
(0.000190473324914 -2.21100596158e-06 0)
(0.000194597061722 -1.91270028101e-06 0)
(0.000198083046125 -1.57325784443e-06 0)
(0.000200857621161 -1.20129587232e-06 0)
(0.000202865776582 -8.06843747368e-07 0)
(0.000204073144606 -4.00514389578e-07 0)
(0.000204466336717 7.3260252351e-09 0)
(0.000204051776653 4.0723160287e-07 0)
(0.000202853451442 7.91085117166e-07 0)
(0.000200910117124 1.1522349359e-06 0)
(0.000198272434336 1.48542824133e-06 0)
(0.000195000354895 1.78662678837e-06 0)
(0.000191160903626 2.05279593406e-06 0)
(0.000186826342997 2.28173275614e-06 0)
(0.000182072608383 2.4719673357e-06 0)
(0.000176977861882 2.62274289158e-06 0)
(0.000171621025004 2.73405679448e-06 0)
(0.000166080202864 2.80672802376e-06 0)
(0.000160430989484 2.8424486352e-06 0)
(0.000154744724568 2.84378079858e-06 0)
(0.00014908683427 2.81407580067e-06 0)
(0.000143515413775 2.75731320728e-06 0)
(0.0001380801924 2.67787921896e-06 0)
(0.000132821970065 2.58031691659e-06 0)
(0.000127772545631 2.46908418461e-06 0)
(0.000122955092099 2.34834890158e-06 0)
(0.000118384886216 2.22183936774e-06 0)
(0.000114070276618 2.09275532395e-06 0)
(0.000110013774105 1.96373481391e-06 0)
(0.00010621316341 1.83686582007e-06 0)
(0.000102662560259 1.71372933922e-06 0)
(9.93533637458e-05 1.59546098976e-06 0)
(9.62750775307e-05 1.48282058525e-06 0)
(9.34159917727e-05 1.37626181406e-06 0)
(9.07637305848e-05 1.27599704776e-06 0)
(8.83056775813e-05 1.18205443003e-06 0)
(8.60292959925e-05 1.09432622388e-06 0)
(8.39223608706e-05 1.0126083694e-06 0)
(8.19731202061e-05 9.36632014078e-07 0)
(8.01704000629e-05 8.66087964741e-07 0)
(7.85036666877e-05 8.00645256679e-07 0)
(7.69630563384e-05 7.39964868872e-07 0)
(7.55393814742e-05 6.83709642749e-07 0)
(7.42241201118e-05 6.31551200386e-07 0)
(7.30093935631e-05 5.83174640513e-07 0)
(7.1887936475e-05 5.3828154525e-07 0)
(7.08530620077e-05 4.96591829472e-07 0)
(6.98986241418e-05 4.5784476847e-07 0)
(6.90189783809e-05 4.21799569097e-07 0)
(6.82089415531e-05 3.88235705995e-07 0)
(6.74637508872e-05 3.56953304591e-07 0)
(6.67790220943e-05 3.27773760012e-07 0)
(6.61507056854e-05 3.00540875117e-07 0)
(6.55750402517e-05 2.75122766859e-07 0)
(6.50485007612e-05 2.51414938101e-07 0)
(6.45677390955e-05 2.29344970472e-07 0)
(6.41295128556e-05 2.08879558793e-07 0)
(6.37305967832e-05 1.90034865023e-07 0)
(6.33676686013e-05 1.72891741505e-07 0)
(6.3037157203e-05 1.57618163408e-07 0)
(6.27350349421e-05 1.44502691289e-07 0)
(6.24565257473e-05 1.34005188728e-07 0)
(6.21956840203e-05 1.26835318374e-07 0)
(6.19447711134e-05 1.24076470562e-07 0)
(6.16933098119e-05 1.27383828554e-07 0)
(6.14266289207e-05 1.3929620278e-07 0)
(6.11236488145e-05 1.63683230208e-07 0)
(6.07538572824e-05 2.06107869731e-07 0)
(6.02750873411e-05 2.72661894336e-07 0)
(5.96526017466e-05 3.49823716974e-07 0)
(0.00121018548493 0.000302865289956 0)
(0.00116035864831 0.000315184872891 0)
(0.00102702043239 0.000238111099206 0)
(0.000887627365133 0.000171787229184 0)
(0.000766994402378 0.000124511222057 0)
(0.000668596491522 9.20093572476e-05 0)
(0.000589733519465 6.95572673987e-05 0)
(0.000526584742493 5.37448749569e-05 0)
(0.0004757181939 4.23354260371e-05 0)
(0.000434402751854 3.38954518967e-05 0)
(0.00040055566781 2.75030851605e-05 0)
(0.000372608487663 2.25563568694e-05 0)
(0.000349378833713 1.86540100014e-05 0)
(0.000329968716007 1.55224477337e-05 0)
(0.000313689128515 1.29707898713e-05 0)
(0.000300005551777 1.08628699922e-05 0)
(0.000288498836363 9.09948585926e-06 0)
(0.000278837053725 7.60693021759e-06 0)
(0.000270755085764 6.32943054695e-06 0)
(0.000264039675359 5.22406586862e-06 0)
(0.000258518352999 4.25728278814e-06 0)
(0.000254051139466 3.40246342393e-06 0)
(0.000250524258019 2.63819785547e-06 0)
(0.000247845318001 1.94703674713e-06 0)
(0.000245939588471 1.31457679078e-06 0)
(0.000244747088531 7.28780639716e-07 0)
(0.000244220296065 1.79464774674e-07 0)
(0.000244322329026 -3.42090309858e-07 0)
(0.000245025489667 -8.43437703904e-07 0)
(0.000246310088462 -1.33119306817e-06 0)
(0.000248163484187 -1.81121226698e-06 0)
(0.000250579288819 -2.28872510902e-06 0)
(0.000253556693498 -2.76843220955e-06 0)
(0.000257099877562 -3.25456946993e-06 0)
(0.000261217465839 -3.75094216164e-06 0)
(0.000265922000299 -4.26092868497e-06 0)
(0.00027122939147 -4.78745244239e-06 0)
(0.000277158312854 -5.33291896026e-06 0)
(0.000283729498379 -5.89911433294e-06 0)
(0.000290964899171 -6.48706053655e-06 0)
(0.000298886652264 -7.09682326692e-06 0)
(0.000307515811368 -7.72726926577e-06 0)
(0.000316870789912 -8.37577292283e-06 0)
(0.000326965471289 -9.0378771044e-06 0)
(0.000337806952989 -9.70692100035e-06 0)
(0.000349392913031 -1.03736589306e-05 0)
(0.000361708621516 -1.10259080409e-05 0)
(0.000374723669209 -1.16482787944e-05 0)
(0.000388388548654 -1.22220572864e-05 0)
(0.000402631298362 -1.27253189293e-05 0)
(0.000417354498857 -1.31333534535e-05 0)
(0.000432432978673 -1.34194667795e-05 0)
(0.000447712632115 -1.35561930251e-05 0)
(0.000463010752656 -1.35169015811e-05 0)
(0.000478118233184 -1.32777257725e-05 0)
(0.000492803872192 -1.28196800851e-05 0)
(0.000506820855635 -1.21307784067e-05 0)
(0.000519915265458 -1.12079180525e-05 0)
(0.000531836207628 -1.00582546366e-05 0)
(0.000542346873014 -8.69977481744e-06 0)
(0.000551235583009 -7.16081180383e-06 0)
(0.000558325701899 -5.47838476427e-06 0)
(0.000563483314353 -3.69548783971e-06 0)
(0.000566621837301 -1.85774342945e-06 0)
(0.000567703237978 -1.00372863566e-08 0)
(0.000566736126024 1.80625012758e-06 0)
(0.000563771485426 3.55499899024e-06 0)
(0.000558897042826 5.20604902632e-06 0)
(0.000552231192407 6.73508430871e-06 0)
(0.00054391713683 8.1230303676e-06 0)
(0.000534117585632 9.35530918748e-06 0)
(0.000523010064121 1.04212079939e-05 0)
(0.000510782690773 1.13135007663e-05 0)
(0.000497630192692 1.20283514832e-05 0)
(0.000483749937704 1.25654365552e-05 0)
(0.000469337848001 1.2928157777e-05 0)
(0.000454584195226 1.31237858097e-05 0)
(0.000439669421337 1.31633879301e-05 0)
(0.000424760241272 1.30614505908e-05 0)
(0.000410006328707 1.2835190091e-05 0)
(0.000395537853853 1.2503624928e-05 0)
(0.000381464045559 1.20865363365e-05 0)
(0.000367872820825 1.16034566959e-05 0)
(0.000354831398604 1.10728030463e-05 0)
(0.000342387719429 1.05112290076e-05 0)
(0.000330572440701 9.93322007123e-06 0)
(0.000319401268922 9.35091714833e-06 0)
(0.000308877414182 8.77412773928e-06 0)
(0.000298993995597 8.21047325444e-06 0)
(0.000289736276172 7.66562161765e-06 0)
(0.000281083652879 7.14356181348e-06 0)
(0.000273011367098 6.64688748013e-06 0)
(0.000265491930121 6.17706722228e-06 0)
(0.000258496278397 5.73468835627e-06 0)
(0.000251994685005 5.31966779419e-06 0)
(0.000245957459516 4.93142859367e-06 0)
(0.00024035546961 4.56904381161e-06 0)
(0.000235160516363 4.23135095887e-06 0)
(0.000230345591956 3.91704114505e-06 0)
(0.000225885044829 3.6247270789e-06 0)
(0.000221754673246 3.35299390214e-06 0)
(0.000217931764545 3.1004363624e-06 0)
(0.000214395093847 2.86568539394e-06 0)
(0.00021112489308 2.64742664321e-06 0)
(0.000208102798553 2.44441309005e-06 0)
(0.000205311783225 2.25547349979e-06 0)
(0.000202736077938 2.0795181934e-06 0)
(0.00020036108439 1.91554336361e-06 0)
(0.000198173281229 1.76263506793e-06 0)
(0.000196160123461 1.61997392999e-06 0)
(0.00019430993417 1.48684164231e-06 0)
(0.000192611786341 1.36263044477e-06 0)
(0.000191055371274 1.24685701697e-06 0)
(0.000189630848545 1.139182564e-06 0)
(0.000188328670687 1.0394414732e-06 0)
(0.000187139373563 9.47681730153e-07 0)
(0.000186053320873 8.64221537702e-07 0)
(0.000185060388314 7.89728345122e-07 0)
(0.00018414957027 7.25329084394e-07 0)
(0.00018330849089 6.72763910044e-07 0)
(0.000182522806078 6.34599967147e-07 0)
(0.000181775503629 6.14524338665e-07 0)
(0.00018104617168 6.1772675926e-07 0)
(0.00018031047746 6.51326400254e-07 0)
(0.000179540553336 7.2455583503e-07 0)
(0.000178708128238 8.47451094954e-07 0)
(0.000177795661877 1.02255475692e-06 0)
(0.000176819175484 1.19890297595e-06 0)
(0.00122478242926 0.000267897382888 0)
(0.00124106907614 0.000383692990439 0)
(0.00119610910382 0.000347901196555 0)
(0.00111323495524 0.000284264373274 0)
(0.00102006732165 0.00022583469949 0)
(0.000930310544546 0.000178840593094 0)
(0.000849399672126 0.000142499901659 0)
(0.000778733559218 0.000114617156607 0)
(0.000717947845869 9.31154327782e-05 0)
(0.000666020411354 7.63583485585e-05 0)
(0.000621775356308 6.31323547784e-05 0)
(0.000584094384706 5.25552664739e-05 0)
(0.000551991848706 4.39873180357e-05 0)
(0.000524629441885 3.69616920616e-05 0)
(0.000501306405486 3.11341973431e-05 0)
(0.000481441606893 2.62478657567e-05 0)
(0.000464554569666 2.21082705615e-05 0)
(0.000450248222705 1.85663027761e-05 0)
(0.000438194200455 1.55060756169e-05 0)
(0.000428120707745 1.2836351002e-05 0)
(0.000419802658176 1.04843962596e-05 0)
(0.000413053717086 8.39153075998e-06 0)
(0.000407719895605 6.5098590689e-06 0)
(0.000403674390049 4.79984610552e-06 0)
(0.000400813414628 3.2284967174e-06 0)
(0.000399052824525 1.76797440726e-06 0)
(0.000398325367582 3.94543396248e-07 0)
(0.000398578435852 -9.12247801479e-07 0)
(0.000399772212938 -2.17019610081e-06 0)
(0.000401878133783 -3.39493284057e-06 0)
(0.000404877589556 -4.60030267799e-06 0)
(0.000408760818985 -5.79864731716e-06 0)
(0.000413525934198 -7.00100795932e-06 0)
(0.000419178034033 -8.21725475904e-06 0)
(0.000425728359905 -9.45614671272e-06 0)
(0.000433193449354 -1.07253216851e-05 0)
(0.000441594240885 -1.20312130646e-05 0)
(0.00045095508082 -1.33788871177e-05 0)
(0.00046130257919 -1.47717932871e-05 0)
(0.00047266425781 -1.62114191594e-05 0)
(0.000485066930584 -1.76968428186e-05 0)
(0.00049853475508 -1.92241789915e-05 0)
(0.000513086897431 -2.07859224432e-05 0)
(0.000528734762068 -2.23702040371e-05 0)
(0.000545478756633 -2.39599924305e-05 0)
(0.000563304594009 -2.55322984289e-05 0)
(0.000582179180646 -2.70574685777e-05 0)
(0.000602046205438 -2.84986872843e-05 0)
(0.000622821625394 -2.98118368738e-05 0)
(0.000644389338995 -3.09458842266e-05 0)
(0.000666597434883 -3.18439600721e-05 0)
(0.000689255486688 -3.24452625878e-05 0)
(0.000712133413348 -3.26878449955e-05 0)
(0.000734962417696 -3.25122408909e-05 0)
(0.000757438438164 -3.18657546796e-05 0)
(0.000779228394353 -3.07071167637e-05 0)
(0.000799979282283 -2.90110892174e-05 0)
(0.000819329892765 -2.67725120859e-05 0)
(0.000836924600434 -2.400920617e-05 0)
(0.000852428322516 -2.07631203491e-05 0)
(0.000865541418818 -1.70991984939e-05 0)
(0.00087601308607 -1.31017285264e-05 0)
(0.00088365181265 -8.86844732915e-06 0)
(0.000888331800142 -4.5032793927e-06 0)
(0.000889994905539 -1.09013433062e-07 0)
(0.000888648433412 4.21878370462e-06 0)
(0.000884359752007 8.39574113797e-06 0)
(0.000877249003278 1.23504337985e-05 0)
(0.000867481080914 1.6024391734e-05 0)
(0.000855257719982 1.93710450206e-05 0)
(0.000840810145733 2.23543143603e-05 0)
(0.000824392377762 2.49473783454e-05 0)
(0.000806275049826 2.71319123656e-05 0)
(0.000786739496518 2.88978694867e-05 0)
(0.000766071864893 3.02436837173e-05 0)
(0.000744557110263 3.11766363717e-05 0)
(0.000722472898354 3.17130584125e-05 0)
(0.000700083613083 3.1878067921e-05 0)
(0.000677634806384 3.17046591581e-05 0)
(0.000655348480038 3.12321316092e-05 0)
(0.000633419544511 3.05040149874e-05 0)
(0.000612013673677 2.9565756891e-05 0)
(0.000591266607935 2.84624683466e-05 0)
(0.000571284796576 2.72369766133e-05 0)
(0.000552147148226 2.59283439562e-05 0)
(0.000533907591421 2.45709102534e-05 0)
(0.000516598134616 2.31938328921e-05 0)
(0.000500232143228 2.18210422512e-05 0)
(0.00048480760418 2.04715062999e-05 0)
(0.000470310210121 1.915969678e-05 0)
(0.000456716155141 1.78961634827e-05 0)
(0.000443994584435 1.66881437822e-05 0)
(0.00043210967957 1.55401563379e-05 0)
(0.000421022388576 1.44545468891e-05 0)
(0.000410691827589 1.34319692776e-05 0)
(0.000401076390379 1.24717956172e-05 0)
(0.000392134605762 1.15724568495e-05 0)
(0.000383825782768 1.07317190949e-05 0)
(0.000376110480773 9.94690348759e-06 0)
(0.00036895083788 9.21505781459e-06 0)
(0.000362310786345 8.53308822914e-06 0)
(0.000356156179322 7.89785856433e-06 0)
(0.000350454848901 7.30626399279e-06 0)
(0.000345176611581 6.75528475495e-06 0)
(0.000340293233856 6.24202488605e-06 0)
(0.000335778367679 5.76374001106e-06 0)
(0.000331607463003 5.31785771815e-06 0)
(0.000327757662419 4.90199344952e-06 0)
(0.000324207681 4.51396457887e-06 0)
(0.000320937672791 4.15180508004e-06 0)
(0.000317929083829 3.81378321658e-06 0)
(0.000315164490165 3.49842473225e-06 0)
(0.000312627417964 3.20454436231e-06 0)
(0.000310302141471 2.93128888241e-06 0)
(0.00030817345347 2.67819560359e-06 0)
(0.000306226402011 2.44527097415e-06 0)
(0.000304445987135 2.23309489621e-06 0)
(0.000302816812924 2.04295707059e-06 0)
(0.000301322695242 1.87703170103e-06 0)
(0.00029994623747 1.73859439328e-06 0)
(0.000298668412 1.63227608285e-06 0)
(0.000297468236965 1.56432245527e-06 0)
(0.00029632273917 1.54275566478e-06 0)
(0.000295207587387 1.57714143025e-06 0)
(0.000294099123388 1.67712760022e-06 0)
(0.000292979068157 1.84735907e-06 0)
(0.000291842937924 2.07124337104e-06 0)
(0.000290706363686 2.26327524537e-06 0)
(0.00122191349458 0.000221201465885 0)
(0.00125331307953 0.000382702695751 0)
(0.00125085383069 0.000396310738379 0)
(0.00121296738871 0.000356615446887 0)
(0.00115467931229 0.000304939360322 0)
(0.00108839792195 0.000255774124242 0)
(0.00102160212165 0.000213273068046 0)
(0.000958257777983 0.000177854471947 0)
(0.000900194580693 0.00014872705359 0)
(0.000848036209635 0.000124832559161 0)
(0.000801764971098 0.000105174463879 0)
(0.0007610478783 8.89112481075e-05 0)
(0.00072541846936 7.53633078232e-05 0)
(0.0006943746272 6.3991977814e-05 0)
(0.000667428671753 5.43729299987e-05 0)
(0.000644130900329 4.61717296026e-05 0)
(0.000624078709908 3.91236606885e-05 0)
(0.00060691815595 3.30178396404e-05 0)
(0.000592341766733 2.76849759473e-05 0)
(0.000580084704864 2.29880305295e-05 0)
(0.000569920393183 1.88151027105e-05 0)
(0.000561656177651 1.50740050039e-05 0)
(0.000555129299102 1.16881081699e-05 0)
(0.000550203282635 8.59314148947e-06 0)
(0.000546764767398 5.73471351613e-06 0)
(0.000544720756272 3.06637935915e-06 0)
(0.000543996244919 5.48126214691e-07 0)
(0.000544532182025 -1.85481757748e-06 0)
(0.000546283709433 -4.1729134286e-06 0)
(0.000549218635041 -6.43304552617e-06 0)
(0.00055331609401 -8.65908911295e-06 0)
(0.000558565352313 -1.08723336135e-05 0)
(0.000564964708821 -1.30917787333e-05 0)
(0.000572520452795 -1.53343131496e-05 0)
(0.00058124583254 -1.76147788712e-05 0)
(0.000591159988835 -1.99459192701e-05 0)
(0.000602286803627 -2.2338204281e-05 0)
(0.000614653610577 -2.47995230822e-05 0)
(0.000628289709833 -2.73347323386e-05 0)
(0.000643224625505 -2.9945048118e-05 0)
(0.000659486041737 -3.26272721294e-05 0)
(0.000677097353492 -3.53728499619e-05 0)
(0.000696074773062 -3.81667714584e-05 0)
(0.00071642394562 -4.09863436623e-05 0)
(0.000738136049826 -4.37998958699e-05 0)
(0.000761183396174 -4.6565515471e-05 0)
(0.00078551458972 -4.92299607533e-05 0)
(0.000811049397225 -5.17279487374e-05 0)
(0.000837673551188 -5.3982063233e-05 0)
(0.000865233829949 -5.59035571842e-05 0)
(0.000893533862711 -5.73943165431e-05 0)
(0.000922331202834 -5.83501936531e-05 0)
(0.000951336267816 -5.86657972774e-05 0)
(0.000980213734898 -5.82406493514e-05 0)
(0.00100858688836 -5.69864088457e-05 0)
(0.00103604523325 -5.4834653784e-05 0)
(0.00106215543063 -5.17445312737e-05 0)
(0.00108647528924 -4.77094390039e-05 0)
(0.00110857018375 -4.27617899667e-05 0)
(0.00112803087243 -3.69748670413e-05 0)
(0.00114449129535 -3.0460904291e-05 0)
(0.00115764464337 -2.33649868092e-05 0)
(0.00116725596029 -1.58551984002e-05 0)
(0.00117316992211 -8.11046141535e-06 0)
(0.0011753132279 -3.08244542739e-07 0)
(0.00117369200884 7.385686271e-06 0)
(0.00116838546111 1.48240311003e-05 0)
(0.00115953724857 2.18810529882e-05 0)
(0.0011473460682 2.84528094587e-05 0)
(0.00113205634162 3.44556374012e-05 0)
(0.00111394951588 3.98240353862e-05 0)
(0.00109333605829 4.45087897196e-05 0)
(0.00107054797621 4.84758139433e-05 0)
(0.00104593158145 5.17058176247e-05 0)
(0.00101984023284 5.4194618683e-05 0)
(0.000992626908836 5.59536863314e-05 0)
(0.000964636653741 5.70103871049e-05 0)
(0.00093619915082 5.74074459669e-05 0)
(0.000907621839026 5.72013262198e-05 0)
(0.000879184050031 5.6459515354e-05 0)
(0.000851132581649 5.52569798954e-05 0)
(0.000823678965549 5.3672233029e-05 0)
(0.000796998483532 5.17835032503e-05 0)
(0.000771230793778 4.96654148305e-05 0)
(0.00074648188673 4.73864412262e-05 0)
(0.000722827016346 4.50072275476e-05 0)
(0.000700314241752 4.25797407688e-05 0)
(0.000678968250219 4.01471165056e-05 0)
(0.000658794194623 3.77440303703e-05 0)
(0.000639781349502 3.53974190868e-05 0)
(0.000621906457358 3.31273981063e-05 0)
(0.000605136694 3.09482547981e-05 0)
(0.000589432225937 2.88694308379e-05 0)
(0.000574748364361 2.68964379056e-05 0)
(0.000561037340743 2.50316756098e-05 0)
(0.000548249740899 2.32751384306e-05 0)
(0.000536335639677 2.16250109613e-05 0)
(0.000525245479365 2.00781581111e-05 0)
(0.000514930732938 1.86305212823e-05 0)
(0.000505344389642 1.72774330703e-05 0)
(0.000496441296026 1.60138634303e-05 0)
(0.000488178380842 1.48346093503e-05 0)
(0.000480514787723 1.37344390738e-05 0)
(0.000473411935314 1.27082003854e-05 0)
(0.000466833520762 1.17509013028e-05 0)
(0.000460745479105 1.08577701322e-05 0)
(0.000455115908209 1.00243009639e-05 0)
(0.000449914966351 9.24628968899e-06 0)
(0.000445114747414 8.51986514074e-06 0)
(0.000440689136734 7.84151940137e-06 0)
(0.000436613649042 7.20814122622e-06 0)
(0.000432865248541 6.6170563704e-06 0)
(0.000429422150025 6.06607883655e-06 0)
(0.000426263599155 5.55357717108e-06 0)
(0.000423369629674 5.07856027581e-06 0)
(0.000420720795908 4.64078714699e-06 0)
(0.000418297880792 4.24090452353e-06 0)
(0.00041608158405 3.88061442716e-06 0)
(0.000414052203604 3.56286875295e-06 0)
(0.000412189338618 3.29207665713e-06 0)
(0.000410471669145 3.07428563355e-06 0)
(0.000408876911525 2.91724280077e-06 0)
(0.000407382118442 2.83012390748e-06 0)
(0.000405964591266 2.82245045564e-06 0)
(0.000404603773179 2.90109966126e-06 0)
(0.000403284374394 3.06284067655e-06 0)
(0.000401999623681 3.27664281406e-06 0)
(0.000400747202688 3.44687131355e-06 0)
(0.00121690371538 0.000182384262711 0)
(0.0012489487076 0.00035807534171 0)
(0.00126532607869 0.000407019995869 0)
(0.001255229288 0.000393889446604 0)
(0.00122444100226 0.000356741746799 0)
(0.00118127817388 0.000313415980568 0)
(0.00113229678409 0.00027140842612 0)
(0.00108187732765 0.000233482938583 0)
(0.00103271148443 0.000200327652373 0)
(0.000986333380594 0.000171768460451 0)
(0.000943528040206 0.000147315166898 0)
(0.000904613914954 0.000126401788665 0)
(0.000869629382885 0.000108486733875 0)
(0.000838452588213 9.30892141941e-05 0)
(0.000810876928407 7.97973343891e-05 0)
(0.000786657704232 6.82643461617e-05 0)
(0.000765540298801 5.82006650677e-05 0)
(0.000747276662241 4.93650504989e-05 0)
(0.000731634474025 4.15563667605e-05 0)
(0.000718401778782 3.46064204617e-05 0)
(0.000707388871103 2.83739550373e-05 0)
(0.000698428549673 2.2739711667e-05 0)
(0.000691375442426 1.76024083202e-05 0)
(0.000686104837756 1.28754823449e-05 0)
(0.000682511287399 8.48445684051e-06 0)
(0.000680507139053 4.36481268871e-06 0)
(0.000680021088553 4.60270410624e-07 0)
(0.000680996797616 -3.27859385669e-06 0)
(0.000683391593978 -6.89544846669e-06 0)
(0.000687175257981 -1.04290892825e-05 0)
(0.000692328886084 -1.39141231988e-05 0)
(0.000698843808816 -1.73814728091e-05 0)
(0.000706720537804 -2.08587185779e-05 0)
(0.000715967711072 -2.43702851312e-05 0)
(0.000726601000643 -2.79374714869e-05 0)
(0.000738641941421 -3.15783192758e-05 0)
(0.000752116635133 -3.53073080737e-05 0)
(0.000767054277819 -3.91348633605e-05 0)
(0.00078348545427 -4.30666606548e-05 0)
(0.000801440138419 -4.71027102087e-05 0)
(0.000820945336019 -5.12362113586e-05 0)
(0.000842022306241 -5.54521762731e-05 0)
(0.000864683304056 -5.97258413586e-05 0)
(0.000888927798071 -6.40209136556e-05 0)
(0.000914738141931 -6.8287741069e-05 0)
(0.000942074715391 -7.24615504443e-05 0)
(0.000970870607384 -7.646096451e-05 0)
(0.00100102599091 -8.01870818042e-05 0)
(0.00103240243886 -8.35234704512e-05 0)
(0.0010648175468 -8.63374678434e-05 0)
(0.0010980403524 -8.84831686615e-05 0)
(0.00113178815076 -8.98063983699e-05 0)
(0.00116572537346 -9.01517934729e-05 0)
(0.00119946519477 -8.93718508556e-05 0)
(0.00123257442875 -8.73375016366e-05 0)
(0.00126458207996 -8.39494632627e-05 0)
(0.00129499162428 -7.91493710051e-05 0)
(0.00132329675 -7.29294947648e-05 0)
(0.00134899989746 -6.53396934156e-05 0)
(0.00137163249477 -5.64901754446e-05 0)
(0.00139077531438 -4.65487752835e-05 0)
(0.00140607697127 -3.57320706641e-05 0)
(0.00141726846755 -2.4290892353e-05 0)
(0.00142417209545 -1.24923373797e-05 0)
(0.00142670398469 -6.01559677165e-07 0)
(0.00142487082467 1.11333688999e-05 0)
(0.0014187622974 2.24913972521e-05 0)
(0.00140854113107 3.3283026143e-05 0)
(0.00139443241751 4.33506790206e-05 0)
(0.00137671324895 5.25666020965e-05 0)
(0.00135570313379 6.08299432633e-05 0)
(0.00133175520483 6.80641950475e-05 0)
(0.00130524797312 7.42156465015e-05 0)
(0.00127657727961 7.92529972385e-05 0)
(0.00124614812635 8.31678669326e-05 0)
(0.00121436621255 8.59756058841e-05 0)
(0.00118162923214 8.77156387567e-05 0)
(0.00114831824596 8.84506260856e-05 0)
(0.00111478964229 8.82640121292e-05 0)
(0.00108136826913 8.72559506082e-05 0)
(0.00104834224006 8.55380097805e-05 0)
(0.00101595971439 8.32273211921e-05 0)
(0.000984427702215 8.04408937954e-05 0)
(0.000953912715776 7.72906926749e-05 0)
(0.000924542928399 7.38798569466e-05 0)
(0.000896411426392 7.03001894451e-05 0)
(0.000869580137317 6.66308529236e-05 0)
(0.000844084067093 6.29380806784e-05 0)
(0.000819935553395 5.92756532861e-05 0)
(0.000797128323917 5.56858908623e-05 0)
(0.000775641222484 5.22009414295e-05 0)
(0.000755441527394 4.88441920886e-05 0)
(0.000736487832961 4.56316781611e-05 0)
(0.000718732498047 4.25734085543e-05 0)
(0.00070212368663 3.96745603605e-05 0)
(0.000686607037716 3.69365213096e-05 0)
(0.0006721270077 3.43577764231e-05 0)
(0.000658627929503 3.19346463086e-05 0)
(0.000646054831184 2.96618909327e-05 0)
(0.000634354053355 2.75331955706e-05 0)
(0.000623473700499 2.55415563911e-05 0)
(0.000613363956696 2.36795824135e-05 0)
(0.000603977291807 2.19397292326e-05 0)
(0.000595268579861 2.03144781278e-05 0)
(0.000587195147564 1.87964724623e-05 0)
(0.000579716767377 1.73786215595e-05 0)
(0.000572795606593 1.60541808403e-05 0)
(0.000566396141216 1.48168157382e-05 0)
(0.000560485041188 1.36606559899e-05 0)
(0.000555031031625 1.25803461403e-05 0)
(0.000550004733075 1.15710976383e-05 0)
(0.000545378482604 1.06287475399e-05 0)
(0.000541126136563 9.74982865427e-06 0)
(0.000537222855431 8.93165570858e-06 0)
(0.000533644871309 8.17243170099e-06 0)
(0.000530369239665 7.47137756915e-06 0)
(0.000527373579355 6.82888609432e-06 0)
(0.00052463580942 6.24669626935e-06 0)
(0.000522133898642 5.72807507075e-06 0)
(0.00051984565579 5.27797534197e-06 0)
(0.000517748606411 4.9031032265e-06 0)
(0.000515820027088 4.61175988779e-06 0)
(0.000514037237998 4.41318712218e-06 0)
(0.000512378274167 4.31587688342e-06 0)
(0.00051082300002 4.32376470287e-06 0)
(0.000509354366492 4.42820774555e-06 0)
(0.000507958095359 4.59229775859e-06 0)
(0.000506615869596 4.72586341958e-06 0)
(0.00121280695768 0.000152673596507 0)
(0.00124154745439 0.000327000538953 0)
(0.00126537308224 0.000397891825241 0)
(0.00127136459778 0.000407122916766 0)
(0.00125978872959 0.000385872454425 0)
(0.00123529227209 0.000351944582722 0)
(0.00120271620951 0.000314437300443 0)
(0.00116589631601 0.000277693438603 0)
(0.00112757027511 0.000243609061141 0)
(0.00108958012375 0.000212855331796 0)
(0.00105310594766 0.000185507837107 0)
(0.00101886117337 0.000161368043168 0)
(0.000987239867086 0.000140126342916 0)
(0.000958422902267 0.000121443389779 0)
(0.000932452622942 0.000104989122929 0)
(0.000909284517023 9.04599124747e-05 0)
(0.000888822527617 7.7584518011e-05 0)
(0.000870942891285 6.61244944127e-05 0)
(0.000855510011722 5.58720140086e-05 0)
(0.000842386847085 4.66466557528e-05 0)
(0.000831441544055 3.82919522394e-05 0)
(0.00082255152225 3.06720784477e-05 0)
(0.000815605840459 2.36688501202e-05 0)
(0.000810506416349 1.71790874896e-05 0)
(0.000807168490543 1.11123444742e-05 0)
(0.000805520600485 5.38897835731e-06 0)
(0.000805504242382 -6.14736230677e-08 0)
(0.000807073336961 -5.30164243384e-06 0)
(0.00081019357273 -1.03874230923e-05 0)
(0.000814841676213 -1.53688753811e-05 0)
(0.000821004631394 -2.02909158039e-05 0)
(0.000828678851062 -2.51938201606e-05 0)
(0.000837869295262 -3.01135439939e-05 0)
(0.000848588521104 -3.50818602335e-05 0)
(0.000860855639473 -4.01263072775e-05 0)
(0.000874695146368 -4.52699352769e-05 0)
(0.000890135589373 -5.05308335935e-05 0)
(0.000907208022928 -5.59214189918e-05 0)
(0.000925944199807 -6.14474626917e-05 0)
(0.000946374440887 -6.71068363994e-05 0)
(0.000968525121641 -7.28879643491e-05 0)
(0.000992415713124 -7.87679827559e-05 0)
(0.00101805531914 -8.4710632518e-05 0)
(0.00104543866254 -9.06639488595e-05 0)
(0.00107454149511 -9.65578655848e-05 0)
(0.00110531544227 -0.000102301923411 0)
(0.00113768234862 -0.000107783359748 0)
(0.00117152827033 -0.00011286595424 0)
(0.00120669736447 -0.000117390094869 0)
(0.00124298605393 -0.00012117458795 0)
(0.00128013798788 -0.000124020727786 0)
(0.00131784044959 -0.000125719032045 0)
(0.0013557229546 -0.000126058814005 0)
(0.00139335879193 -0.000124840410217 0)
(0.00143027016031 -0.000121889461938 0)
(0.00146593733246 -0.000117072241282 0)
(0.00149981196757 -0.000110310686977 0)
(0.00153133432348 -0.000101595576839 0)
(0.00155995370949 -9.09960656001e-05 0)
(0.00158515103993 -7.86636588332e-05 0)
(0.00160646177205 -6.48287810549e-05 0)
(0.0016234969382 -4.97888372298e-05 0)
(0.00163595970958 -3.38883563782e-05 0)
(0.00164365534172 -1.74941109273e-05 0)
(0.00164649358035 -9.69906433255e-07 0)
(0.00164448425262 1.53441965304e-05 0)
(0.00163772807226 3.11452569053e-05 0)
(0.00162640508324 4.61732894146e-05 0)
(0.00161076269875 6.0211471016e-05 0)
(0.00159110446095 7.30831653311e-05 0)
(0.00156777989422 8.46480046457e-05 0)
(0.00154117532901 9.47985668002e-05 0)
(0.00151170531995 0.000103458453099 0)
(0.00147980420168 0.000110581940883 0)
(0.00144591737733 0.000116154842352 0)
(0.00141049211137 0.000120195756429 0)
(0.0013739678841 0.000122756648335 0)
(0.00133676669103 0.000123921755508 0)
(0.00129928392532 0.000123804219855 0)
(0.00126188056758 0.000122540449933 0)
(0.00122487729547 0.000120282796228 0)
(0.00118855086575 0.000117191482921 0)
(0.00115313280802 0.000113426802455 0)
(0.00111881019516 0.000109142390834 0)
(0.00108572807574 0.000104480079307 0)
(0.00105399308107 9.95664827587e-05 0)
(0.00102367773379 9.45112192486e-05 0)
(0.000994825054175 8.94064907668e-05 0)
(0.000967453152886 8.43276870752e-05 0)
(0.000941559592525 7.93346771888e-05 0)
(0.000917125381984 7.44734978892e-05 0)
(0.000894118532082 6.97782112089e-05 0)
(0.000872497148317 6.527276695e-05 0)
(0.000852212068672 6.09727626136e-05 0)