/*--------------------------------*- C++ -*----------------------------------*\
  =========                 |
  \\      /  F ield         | OpenFOAM: The Open Source CFD Toolbox
   \\    /   O peration     | Website:  https://openfoam.org
    \\  /    A nd           | Version:  7
     \\/     M anipulation  |
\*---------------------------------------------------------------------------*/
FoamFile
{
    version     2.0;
    format      ascii;
    class       volScalarField;
    location    "180";
    object      Ci;
}
// * * * * * * * * * * * * * * * * * * * * * * * * * * * * * * * * * * * * * //

dimensions      [0 -3 0 0 1 0 0];

internalField   nonuniform List<scalar> 
8192
(
10.0000000313
9.99999989075
9.99999967534
9.99999940308
9.99999908297
9.99999872475
9.99999834028
9.99999794119
9.99999753742
9.99999713848
9.99999675299
9.99999638923
9.99999605428
9.99999575505
9.99999549729
9.9999952871
9.9999951295
9.99999503031
9.99999499408
9.99999502638
9.9999951309
9.99999531221
9.99999557193
9.9999959121
9.99999633028
9.99999682383
9.99999738394
9.99999800109
9.9999986581
9.99999933701
10.0000000112
10.0000006541
10.0000012302
10.0000017055
10.0000020386
10.0000021918
10.0000021224
10.0000017955
10.0000011741
10.0000002334
9.99999895049
9.99999731792
9.99999533349
9.99999301224
9.99999037581
9.99998746216
9.99998431533
9.99998099194
9.99997755262
9.9999740648
9.99997059741
9.99996721957
9.99996400021
9.99996100154
9.99995828721
9.99995582285
9.99995365581
9.99995187446
9.99995054807
9.99994971369
9.99994940404
9.99994962379
9.99995037878
9.99995164816
9.99995341722
9.99995564768
9.99995831114
9.99996135755
9.99996474639
9.9999684154
9.99997230997
9.99997635634
9.99998050041
9.99998469517
9.99998888269
9.99999300072
9.99999699954
10.0000008311
10.0000044596
10.0000078557
10.0000110001
10.0000138813
10.0000164945
10.0000188429
10.0000209316
10.0000227737
10.0000243807
10.0000257717
10.0000269622
10.0000279752
10.0000288283
10.0000295461
10.0000301472
10.0000306556
10.0000310889
10.0000314693
10.0000318113
10.0000321318
10.0000324325
10.0000327095
10.000032955
10.0000331652
10.0000333331
10.0000334548
10.0000335239
10.0000335372
10.0000334898
10.0000333798
10.0000332047
10.0000329643
10.0000326588
10.0000322899
10.0000318602
10.0000313732
10.0000308335
10.0000302459
10.0000296165
10.0000289509
10.0000282557
10.0000275367
10.0000268004
10.0000260516
10.0000252964
10.00002454
10.0000237927
10.0000230753
10.0000224402
10.0000220143
9.99999998745
9.99999980099
9.99999959713
9.99999937541
9.99999912654
9.99999885021
9.99999854864
9.99999822831
9.99999789779
9.99999756669
9.9999972438
9.99999693756
9.99999665509
9.99999640343
9.99999618851
9.99999601669
9.99999589339
9.99999582485
9.99999581622
9.9999958736
9.99999600144
9.99999620484
9.99999648615
9.99999684767
9.99999728739
9.99999780233
9.99999838348
9.99999902013
9.99999969403
10.0000003851
10.0000010648
10.0000017034
10.0000022631
10.0000027061
10.0000029882
10.0000030682
10.0000029017
10.0000024508
10.0000016796
10.000000563
9.99999908309
9.9999972367
9.99999503141
9.9999924913
9.9999896522
9.99998656453
9.99998328852
9.99997989343
9.99997645416
9.99997304677
9.99996974811
9.99996662792
9.99996375347
9.99996117656
9.99995895072
9.99995709612
9.99995562831
9.99995455769
9.99995390089
9.99995366115
9.99995384413
9.99995443952
9.99995544082
9.99995682803
9.99995858838
9.99996069802
9.99996314033
9.99996588616
9.99996891002
9.99997217122
9.99997563049
9.99997923478
9.99998293289
9.99998667831
9.99999043268
9.99999415254
9.99999780013
10.0000013358
10.0000047269
10.0000079427
10.0000109594
10.0000137575
10.0000163236
10.0000186501
10.0000207341
10.0000225793
10.000024192
10.0000255854
10.0000267735
10.0000277766
10.0000286136
10.0000293089
10.0000298836
10.0000303632
10.0000307683
10.0000311226
10.0000314445
10.0000317537
10.0000320453
10.0000323002
10.0000325144
10.0000326872
10.0000328147
10.0000328954
10.000032925
10.0000329016
10.0000328215
10.0000326835
10.0000324858
10.0000322284
10.0000319116
10.0000315371
10.0000311074
10.0000306259
10.0000300966
10.0000295244
10.0000289146
10.0000282729
10.0000276054
10.0000269177
10.000026216
10.0000255051
10.0000247902
10.0000240755
10.0000233682
10.000022683
10.0000220574
10.000021627
9.99999999028
9.9999997876
9.99999960085
9.99999944682
9.9999992992
9.99999915116
9.99999900204
9.99999885031
9.9999986964
9.999998544
9.99999839778
9.99999826452
9.99999815049
9.99999806326
9.99999800899
9.99999799494
9.99999802635
9.99999810964
9.99999824859
9.99999844828
9.99999871037
9.99999903774
9.99999942878
9.99999988298
10.0000003939
10.000000956
10.0000015563
10.0000021831
10.0000028153
10.0000034344
10.0000040111
10.0000045206
10.0000049276
10.0000052036
10.0000053117
10.0000052239
10.0000049088
10.0000043456
10.0000035161
10.0000024133
10.0000010381
9.99999940283
9.99999752956
9.99999545076
9.99999320705
9.99999084635
9.99998842132
9.99998598625
9.9999835969
9.99998130373
9.9999791567
9.99997719412
9.9999754539
9.99997395724
9.99997272773
9.99997176919
9.99997108803
9.99997067253
9.9999705203
9.99997061153
9.99997093799
9.99997147434
9.99997220992
9.99997311978
9.9999741969
9.99997542271
9.99997679696
9.99997830806
9.99997995943
9.99998174149
9.99998365491
9.99998568772
9.99998783385
9.9999900783
9.99999241302
9.9999948222
9.99999729284
9.99999980613
10.0000023438
10.0000048844
10.0000074053
10.0000098836
10.0000122939
10.0000146138
10.0000168184
10.0000188889
10.0000208047
10.0000225541
10.000024124
10.0000255119
10.0000267142
10.0000277376
10.0000285869
10.0000292762
10.0000298167
10.0000302267
10.0000305209
10.000030718
10.0000308345
10.0000308898
10.0000308946
10.0000308586
10.0000307845
10.0000306754
10.0000305304
10.0000303502
10.0000301332
10.0000298795
10.0000295882
10.0000292598
10.0000288947
10.0000284946
10.0000280612
10.0000275974
10.0000271063
10.0000265919
10.0000260586
10.0000255112
10.0000249548
10.0000243945
10.0000238357
10.0000232829
10.000022741
10.0000222123
10.0000217026
10.0000212188
10.0000207699
10.0000206152
9.99999999342
9.99999978595
9.99999960853
9.99999949775
9.99999943102
9.9999993886
9.99999935406
9.99999933953
9.99999934493
9.99999937095
9.99999941857
9.99999949002
9.99999958782
9.99999971559
9.99999987668
10.0000000752
10.0000003144
10.000000598
10.0000009278
10.0000013061
10.0000017326
10.000002207
10.0000027257
10.0000032851
10.0000038767
10.0000044933
10.0000051205
10.0000057472
10.0000063526
10.0000069225
10.0000074303
10.0000078609
10.0000081843
10.0000083866
10.0000084403
10.0000083341
10.000008051
10.0000075834
10.0000069314
10.0000060935
10.0000050879
10.0000039228
10.0000026296
10.0000012284
9.99999975669
9.99999824344
9.99999672607
9.9999952359
9.99999380597
9.99999246286
9.99999123211
9.99999013151
9.99998917734
9.99998837745
9.99998773881
9.99998726028
9.9999869407
9.99998677193
9.99998674722
9.99998685395
9.99998708101
9.99998741229
9.9999878343
9.99998833055
9.99998888845
9.99998949437
9.99999013986
9.99999081693
9.99999152307
9.99999225596
9.99999301835
9.99999381305
9.99999464742
9.99999552809
9.99999646576
9.99999746874
9.99999854724
9.99999970758
10.000000956
10.0000022938
10.0000037198
10.0000052275
10.0000068068
10.0000084429
10.0000101175
10.0000118094
10.0000134953
10.0000151517
10.0000167544
10.0000182822
10.0000197148
10.0000210366
10.0000222339
10.0000232986
10.0000242247
10.0000250116
10.0000256604
10.0000261761
10.0000265653
10.0000268404
10.0000270132
10.0000270961
10.0000270987
10.0000270306
10.0000268986
10.0000267102
10.0000264707
10.0000261866
10.0000258625
10.0000255042
10.0000251164
10.0000247047
10.0000242738
10.0000238292
10.000023376
10.0000229197
10.0000224655
10.000022019
10.0000215856
10.0000211705
10.0000207789
10.0000204149
10.0000200842
10.0000197861
10.0000195329
10.0000193154
10.0000191398
10.0000193087
9.99999999354
9.999999782
9.99999960696
9.99999951814
9.9999995006
9.99999952872
9.99999958606
9.99999965314
9.99999975225
9.99999988581
10.0000000549
10.0000002606
10.0000005033
10.000000784
10.000001103
10.0000014612
10.0000018586
10.0000022955
10.0000027707
10.0000032833
10.0000038299
10.0000044082
10.0000050113
10.0000056355
10.0000062687
10.0000069073
10.000007532
10.0000081411
10.0000087065
10.0000092322
10.0000096795
10.0000100619
10.0000103324
10.0000105137
10.0000105593
10.0000104938
10.0000102869
10.0000099527
10.0000094929
10.0000089014
10.0000082155
10.0000074136
10.0000065532
10.0000056137
10.0000046497
10.0000036553
10.0000026689
10.0000016984
10.0000007675
9.99999988846
9.99999907675
9.99999834209
9.99999769493
9.99999714054
9.99999668495
9.99999632885
9.99999607424
9.99999591814
9.99999585971
9.99999589287
9.99999601285
9.99999620892
9.99999647204
9.99999678792
9.99999714405
9.99999752341
9.99999791247
9.99999829637
9.99999866542
9.99999901002
9.99999932685
9.99999961443
9.9999998774
10.0000001222
10.0000003603
10.0000006039
10.0000008682
10.0000011685
10.0000015206
10.0000019394
10.0000024376
10.0000030248
10.0000037067
10.0000044851
10.0000053564
10.0000063137
10.0000073447
10.0000084353
10.0000095675
10.0000107231
10.0000118819
10.0000130253
10.0000141341
10.0000151924
10.0000161849
10.0000171
10.0000179277
10.0000186618
10.0000192974
10.0000198343
10.0000202737
10.00002062
10.0000208775
10.0000210528
10.0000211517
10.0000211816
10.0000211492
10.0000210621
10.0000209275
10.0000207532
10.0000205462
10.0000203142
10.0000200643
10.0000198036
10.000019539
10.0000192772
10.0000190246
10.0000187874
10.0000185716
10.0000183822
10.0000182255
10.0000181036
10.0000180264
10.000017983
10.0000180084
10.000018039
10.0000182072
10.0000183979
9.99999999235
9.99999978019
9.999999604
9.99999952551
9.99999953668
9.99999961192
9.99999972793
9.99999987142
10.0000000259
10.0000002181
10.0000004505
10.0000007246
10.0000010402
10.0000013969
10.0000017936
10.0000022289
10.0000027007
10.0000032071
10.0000037443
10.0000043103
10.0000048982
10.0000055066
10.0000061237
10.0000067513
10.0000073685
10.0000079854
10.0000085657
10.0000091367
10.0000096364
10.000010123
10.0000104968
10.0000108597
10.0000110688
10.0000112703
10.0000112924
10.0000112998
10.0000111366
10.0000109287
10.0000106024
10.0000101824
10.0000097223
10.0000091278
10.0000085577
10.0000078544
10.0000071972
10.0000064523
10.0000057441
10.0000050065
10.0000042975
10.0000036028
10.0000029445
10.0000023274
10.0000017629
10.0000012581
10.0000008208
10.0000004562
10.0000001691
9.99999996256
9.99999983975
9.99999980241
9.99999984945
9.99999997729
10.0000001786
10.0000004438
10.0000007575
10.0000011016
10.0000014541
10.0000017957
10.0000021075
10.000002375
10.0000025881
10.0000027428
10.0000028398
10.0000028837
10.0000028832
10.0000028482
10.0000027919
10.0000027271
10.0000026697
10.0000026344
10.0000026374
10.000002692
10.000002811
10.0000030033
10.0000032756
10.0000036302
10.0000040665
10.0000045801
10.0000051642
10.0000058089
10.0000065028
10.0000072333
10.0000079867
10.0000087495
10.0000095083
10.0000102509
10.000010966
10.0000116439
10.0000122763
10.0000128575
10.0000133828
10.0000138502
10.0000142589
10.00001461
10.0000149053
10.0000151483
10.0000153429
10.0000154941
10.0000156072
10.0000156881
10.0000157429
10.000015778
10.0000157995
10.0000158139
10.0000158272
10.0000158457
10.0000158748
10.0000159201
10.0000159869
10.000016079
10.0000162033
10.000016357
10.0000165592
10.0000167762
10.0000170912
10.0000173274
10.0000178758
10.0000179685
9.99999999201
9.99999978177
9.9999996024
9.99999952534
9.99999955159
9.99999965741
9.99999981575
10.0000000094
10.0000002251
10.0000004561
10.0000007253
10.0000010348
10.0000013846
10.0000017737
10.0000021996
10.0000026605
10.000003152
10.0000036725
10.000004215
10.0000047797
10.0000053546
10.0000059451
10.0000065285
10.0000071241
10.0000076864
10.000008265
10.00000877
10.0000093109
10.0000097164
10.0000102021
10.0000104646
10.0000108797
10.0000109652
10.0000112897
10.000011191
10.0000113884
10.000011142
10.0000111542
10.0000108348
10.0000106049
10.0000102842
10.000009806
10.0000094955
10.0000088455
10.0000084874
10.0000077857
10.0000073222
10.0000066493
10.000006094
10.0000054709
10.0000048941
10.0000043265
10.0000037965
10.0000033078
10.0000028703
10.0000024909
10.0000021755
10.0000019298
10.0000017601
10.0000016727
10.0000016711
10.0000017548
10.0000019206
10.0000021608
10.0000024605
10.0000027966
10.0000031429
10.0000034734
10.000003766
10.0000040009
10.0000041684
10.0000042644
10.0000042938
10.00000426
10.0000041724
10.0000040416
10.0000038783
10.0000036939
10.0000034998
10.0000033082
10.0000031304
10.0000029777
10.0000028591
10.0000027843
10.0000027582
10.0000027878
10.0000028773
10.0000030283
10.0000032398
10.000003509
10.0000038312
10.0000042005
10.0000046099
10.0000050515
10.0000055173
10.0000059988
10.0000064882
10.0000069781
10.0000074616
10.000007933
10.0000083875
10.0000088218
10.0000092331
10.0000096204
10.0000099833
10.0000103225
10.0000106396
10.0000109369
10.0000112173
10.0000114841
10.000011741
10.0000119921
10.0000122412
10.0000124927
10.0000127505
10.0000130186
10.0000133006
10.0000136
10.0000139207
10.0000142634
10.0000146364
10.0000150285
10.0000154715
10.0000159005
10.0000164597
10.0000168423
10.000017699
10.0000177305
9.99999999139
9.99999978481
9.99999960421
9.99999952382
9.99999955497
9.99999967789
9.99999986545
10.0000000945
10.0000003541
10.0000006282
10.0000009255
10.0000012587
10.0000016278
10.000002032
10.0000024675
10.0000029328
10.0000034213
10.0000039336
10.000004458
10.0000050017
10.0000055416
10.0000061015
10.0000066323
10.0000071954
10.0000076855
10.0000082448
10.000008652
10.0000092114
10.00000948
10.000010059
10.0000101208
10.000010752
10.0000105407
10.0000112495
10.0000107376
10.0000114965
10.0000107521
10.0000114274
10.0000106504
10.0000110028
10.0000104646
10.0000102708
10.0000101273
10.0000093777
10.0000094985
10.0000084697
10.0000085181
10.0000075616
10.0000073321
10.0000065956
10.0000061504
10.0000055754
10.0000050825
10.0000046018
10.0000041654
10.000003774
10.0000034329
10.0000031498
10.0000029344
10.0000028
10.0000027551
10.000002806
10.0000029525
10.0000031913
10.000003505
10.0000038662
10.0000042385
10.000004589
10.0000048871
10.0000051063
10.0000052354
10.0000052717
10.0000052235
10.0000051039
10.0000049298
10.000004717
10.0000044799
10.0000042297
10.0000039774
10.0000037314
10.0000034998
10.0000032885
10.000003103
10.0000029476
10.0000028249
10.000002738
10.0000026876
10.0000026769
10.0000027029
10.0000027704
10.0000028798
10.0000030291
10.0000032158
10.0000034363
10.0000036868
10.000003963
10.0000042605
10.0000045749
10.0000049022
10.0000052388
10.0000055814
10.0000059275
10.0000062751
10.0000066232
10.0000069711
10.000007319
10.0000076672
10.0000080172
10.00000837
10.0000087278
10.0000090921
10.0000094653
10.0000098493
10.0000102463
10.000010658
10.0000110866
10.0000115333
10.0000119998
10.0000124878
10.0000129956
10.0000135317
10.0000140773
10.0000146758
10.0000152342
10.0000159458
10.0000164101
10.000017436
10.0000174635
9.99999999057
9.99999978694
9.99999960369
9.99999951645
9.9999995452
9.99999967567
9.99999988125
10.0000001371
10.0000004263
10.0000007393
10.0000010626
10.0000014173
10.0000018024
10.0000022178
10.000002658
10.0000031233
10.000003603
10.0000041036
10.0000046043
10.0000051271
10.0000056274
10.0000061637
10.0000066368
10.0000071865
10.0000075937
10.000008173
10.0000084541
10.0000091075
10.0000091674
10.0000099829
10.0000096805
10.0000107966
10.0000099508
10.0000115331
10.0000099786
10.0000121275
10.0000098512
10.0000124276
10.0000097608
10.0000122147
10.0000099128
10.0000113486
10.0000102816
10.0000099855
10.0000104745
10.0000086481
10.0000100013
10.0000077574
10.0000088179
10.0000071819
10.0000074171
10.0000065261
10.0000062292
10.0000057063
10.000005296
10.0000049003
10.0000045495
10.0000042429
10.0000039927
10.0000038236
10.0000037525
10.0000037825
10.0000039053
10.0000041085
10.0000043771
10.0000046895
10.0000050205
10.0000053434
10.0000056236
10.0000058225
10.0000059113
10.0000058885
10.0000057666
10.000005564
10.0000053053
10.0000050154
10.0000047141
10.0000044168
10.000004134
10.0000038735
10.000003639
10.000003433
10.0000032548
10.0000031047
10.0000029807
10.000002883
10.0000028102
10.0000027629
10.0000027408
10.0000027432
10.0000027723
10.0000028254
10.0000029075
10.0000030177
10.0000031541
10.0000033146
10.0000034968
10.0000036988
10.0000039188
10.0000041552
10.000004407
10.0000046735
10.0000049541
10.0000052488
10.0000055575
10.0000058808
10.0000062189
10.0000065729
10.0000069431
10.0000073308
10.0000077364
10.0000081613
10.0000086054
10.0000090702
10.000009555
10.0000100613
10.0000105879
10.0000111355
10.0000117036
10.0000122893
10.0000129002
10.0000135133
10.0000141776
10.0000147851
10.0000155523
10.0000160398
10.0000171041
10.0000171444
9.99999999051
9.99999978928
9.99999960598
9.99999951004
9.99999952991
9.99999965887
9.99999987192
10.000000145
10.000000455
10.0000007963
10.0000011449
10.0000015204
10.0000019216
10.0000023494
10.0000027951
10.0000032628
10.0000037353
10.0000042289
10.0000047083
10.0000052187
10.0000056821
10.0000062093
10.0000066256
10.0000071859
10.0000075043
10.0000081439
10.0000082748
10.0000090935
10.0000088775
10.0000100655
10.0000092329
10.0000111126
10.0000092492
10.000012292
10.0000088614
10.0000136012
10.0000081275
10.000014854
10.0000073689
10.0000155389
10.0000071958
10.0000148881
10.0000082143
10.0000125215
10.0000102732
10.0000092524
10.0000119831
10.0000068752
10.0000117923
10.0000063583
10.0000098624
10.0000067095
10.0000077908
10.000006594
10.0000064354
10.0000059453
10.0000055716
10.0000052027
10.0000049038
10.0000047225
10.0000046374
10.0000045291
10.000004248
10.0000037488
10.0000031493
10.0000026688
10.000002502
10.0000027236
10.000003261
10.000003928
10.0000045417
10.0000049935
10.0000052379
10.0000052785
10.0000051589
10.0000049353
10.0000046594
10.0000043684
10.0000040912
10.0000038455
10.000003644
10.0000034922
10.0000033921
10.0000033398
10.0000033284
10.0000033463
10.0000033827
10.0000034245
10.0000034646
10.0000034942
10.0000035149
10.0000035235
10.0000035299
10.0000035339
10.0000035507
10.0000035866
10.0000036465
10.0000037337
10.0000038497
10.000003995
10.0000041692
10.0000043715
10.0000046005
10.0000048554
10.0000051348
10.0000054384
10.0000057653
10.0000061157
10.0000064888
10.0000068854
10.0000073045
10.0000077474
10.0000082121
10.0000087004
10.0000092094
10.000009741
10.000010291
10.0000108619
10.0000114488
10.0000120513
10.0000126726
10.000013292
10.0000139553
10.000014555
10.0000153055
10.0000157741
10.0000167876
10.0000168326
9.99999998943
9.99999978819
9.99999960022
9.99999949409
9.99999950217
9.99999962435
9.99999983824
10.0000001208
10.0000004458
10.0000008071
10.0000011785
10.0000015748
10.000001993
10.0000024356
10.0000028897
10.0000033643
10.0000038339
10.0000043272
10.0000047906
10.0000052975
10.0000057303
10.0000062598
10.0000066262
10.0000072109
10.0000074478
10.0000081629
10.0000081508
10.0000091503
10.0000086635
10.000010243
10.0000088708
10.0000115633
10.000008599
10.0000132938
10.0000076249
10.0000156394
10.0000057678
10.0000186571
10.0000031402
10.0000218285
10.0000006138
10.0000236321
10.0000001422
10.0000217854
10.00000376
10.00001522
10.0000108336
10.000006809
10.0000166047
10.0000021821
10.0000165159
10.0000032658
10.00001216
10.0000059321
10.0000084263
10.0000068051
10.000006647
10.0000061537
10.0000060589
10.0000060436
10.0000051331
10.0000018714
9.99999530132
9.99998594206
9.99997591125
9.99996793652
9.99996406111
9.99996484111
9.99996939039
9.99997606025
9.99998319734
9.99998961474
9.99999470309
9.99999833349
10.0000006909
10.0000020883
10.000002831
10.000003155
10.0000032163
10.0000031034
10.0000028604
10.0000025131
10.0000020856
10.0000016107
10.0000011292
10.0000006853
10.0000003211
10.0000000681
9.99999994675
9.9999999599
10.0000001013
10.000000349
10.000000681
10.0000010665
10.0000014832
10.0000019068
10.0000023274
10.000002736
10.0000031269
10.0000034995
10.0000038548
10.0000041972
10.0000045308
10.0000048616
10.0000051939
10.0000055337
10.0000058835
10.0000062489
10.0000066302
10.000007032
10.0000074528
10.0000078966
10.0000083596
10.0000088461
10.0000093498
10.000009876
10.0000104155
10.0000109752
10.000011544
10.0000121273
10.0000127204
10.0000133105
10.0000139327
10.0000144927
10.000015184
10.0000156104
10.0000165246
10.0000165638
9.99999999082
9.99999978705
9.99999959889
9.99999948157
9.99999947314
9.9999995814
9.999999788
10.0000000718
10.0000004045
10.0000007796
10.0000011673
10.0000015839
10.0000020203
10.0000024805
10.0000029465
10.000003433
10.0000039053
10.0000044045
10.0000048599
10.00000537
10.0000057829
10.0000063197
10.0000066525
10.0000072603
10.0000074431
10.0000082166
10.0000081131
10.0000092397
10.0000085875
10.0000104245
10.0000087325
10.0000119383
10.0000083184
10.000014067
10.0000069663
10.0000172713
10.0000041114
10.0000221533
9.99999907409
10.000029118
9.99999176026
10.0000373145
9.99998428057
10.0000428037
9.99998241717
10.0000385453
9.99999284115
10.0000208134
10.0000136196
9.99999880937
10.000029424
9.9999897165
10.000027639
9.99999630364
10.0000165731
10.0000043373
10.0000085116
10.0000077074
10.0000092128
10.0000046866
9.99998415876
9.99993780846
9.9998641614
9.99977448222
9.9996897595
9.99963120501
9.99961160382
9.9996309856
9.99967920822
9.99974229387
9.99980722418
9.9998648589
9.99991073076
9.99994419315
9.9999669309
9.99998154378
9.99999061258
9.99999625567
10.0000000191
10.0000029049
10.0000054707
10.0000079429
10.0000103408
10.0000125727
10.0000145154
10.000016055
10.0000171168
10.0000176682
10.0000177254
10.0000173398
10.0000165944
10.0000155845
10.0000144118
10.0000131691
10.0000119352
10.0000107728
10.0000097217
10.0000088124
10.0000080589
10.0000074635
10.0000070178
10.0000067116
10.0000065285
10.0000064559
10.0000064763
10.0000065799
10.0000067512
10.0000069848
10.000007267
10.000007597
10.0000079619
10.0000083647
10.0000087923
10.0000092509
10.0000097257
10.0000102266
10.0000107355
10.0000112665
10.0000117981
10.0000123457
10.000012892
10.0000134377
10.0000140009
10.0000145088
10.0000151228
10.0000154995
10.000016296
10.0000163257
9.99999999033
9.99999978074
9.99999958719
9.9999994595
9.9999994349
9.99999952675
9.99999972177
10.0000000005
10.0000003362
10.0000007176
10.0000011209
10.0000015563
10.0000020112
10.0000024903
10.0000029716
10.0000034733
10.0000039545
10.0000044638
10.0000049204
10.0000054365
10.0000058435
10.0000063858
10.0000067066
10.0000073252
10.0000074908
10.0000082887
10.0000081607
10.0000093378
10.0000086461
10.000010577
10.0000088184
10.0000121792
10.000008458
10.0000144268
10.0000071951
10.0000178138
10.0000043492
10.0000232059
9.99999858707
10.0000322368
9.99998772699
10.000047173
9.99996990872
10.0000680547
9.99994870174
10.0000855723
9.99994028777
10.0000778918
9.99996698845
10.0000310176
10.0000244487
9.99997338629
10.000064027
9.99995784907
10.0000529192
9.99997872729
10.0000265427
10.0000142276
10.0000025913
9.9998971155
9.99964087115
9.99919487432
9.99859267881
9.99794492271
9.99739958584
9.9970794229
9.997042434
9.99726224544
9.99765680594
9.99813198504
9.99860507371
9.99901876266
9.99934599546
9.99958440871
9.99974627638
9.99984936329
9.99991088695
9.99994476813
9.99996119794
9.999967256
9.99996769949
9.99996560062
9.99996282217
9.99996039881
9.99995884156
9.99995835873
9.99995898917
9.99996066912
9.99996326225
9.99996657873
9.99997039564
9.99997448215
9.99997862149
9.99998263285
9.99998637733
9.99998976708
9.99999275382
9.99999532981
9.99999751021
9.99999933855
10.0000008574
10.0000021203
10.0000031697
10.0000040554
10.0000048085
10.0000054695
10.0000060557
10.0000065991
10.0000071043
10.0000075978
10.0000080738
10.0000085557
10.0000090298
10.0000095192
10.0000100028
10.0000105058
10.0000110001
10.0000115146
10.0000120152
10.0000125329
10.0000130348
10.0000135397
10.0000140452
10.0000145046
10.0000150425
10.0000153735
10.0000160543
10.0000160754
9.99999999232
9.99999977867
9.99999958018
9.99999944285
9.99999939933
9.99999946964
9.99999964718
9.99999991301
10.0000002463
10.0000006262
10.0000010425
10.000001495
10.0000019685
10.0000024673
10.0000029672
10.0000034863
10.0000039829
10.0000045048
10.000004973
10.0000054956
10.0000059126
10.0000064549
10.0000067892
10.0000074012
10.000007591
10.0000083757
10.0000082894
10.0000094501
10.0000088169
10.0000107445
10.0000090404
10.0000124511
10.0000087387
10.0000148436
10.0000076243
10.0000182527
10.0000053002
10.0000230434
10.0000010689
10.0000302637
9.99999278213
10.000043654
9.99997420595
10.0000720197
9.99993503407
10.0001233716
9.99987623021
10.0001788335
9.99984141753
10.0001709392
9.99990649484
10.0000453466
10.0000663702
9.99989478936
10.0001507177
9.99987896252
10.0001601673
9.9999331373
9.9995866816
9.9984060449
9.99627137073
9.99312514934
9.98936689935
9.98572680125
9.98297977721
9.98165862022
9.98194914146
9.98359089393
9.98608388481
9.98893517824
9.99172459817
9.9941548876
9.99608457696
9.99750312992
9.99848006036
9.99911792923
9.99951831469
9.99976321556
9.99991039094
9.99999720159
10.0000470136
10.0000744917
10.0000888714
10.0000957535
10.0000982371
10.0000978078
10.0000950883
10.0000903816
10.0000839888
10.000076321
10.0000678827
10.0000591989
10.0000507381
10.000042866
10.0000358198
10.0000297232
10.0000245969
10.0000203995
10.0000170365
10.0000144044
10.0000123855
10.0000108828
10.0000097896
10.0000090369
10.0000085413
10.0000082649
10.0000081436
10.0000081654
10.0000082781
10.0000084886
10.0000087498
10.000009082
10.0000094386
10.0000098499
10.0000102666
10.0000107272
10.0000111783
10.0000116649
10.00001213
10.0000126213
10.0000130857
10.0000135576
10.0000140168
10.0000144331
10.0000149072
10.000015191
10.0000157679
10.0000157651
9.99999999044
9.9999997727
9.99999956092
9.99999941519
9.99999935763
9.99999940787
9.99999956483
9.99999981567
10.0000001373
10.0000005176
10.0000009434
10.00000141
10.0000019011
10.0000024186
10.0000029392
10.0000034764
10.0000039939
10.0000045293
10.0000050185
10.000005546
10.0000059883
10.0000065225
10.0000068962
10.0000074789
10.0000077398
10.0000084593
10.0000085012
10.0000095413
10.0000091183
10.000010864
10.0000094376
10.0000126802
10.0000091523
10.000015421
10.0000077983
10.0000195992
10.0000048589
10.0000253933
10.0000004534
10.0000319486
9.99999588504
10.0000379496
9.99999059821
10.0000488425
9.99996974342
10.000092704
9.99989199388
10.0002145028
9.99973105785
10.0003879281
9.99959813389
10.0004041378
9.99976963307
10.0000233221
10.0002188962
9.9997965914
10.0004287321
9.99815284382
9.9945721575
9.98592852912
9.97318024856
9.95644469354
9.938386532
9.92251340795
9.91180816041
9.90791939528
9.9112478114
9.92022242045
9.93246955106
9.94603581914
9.95925512441
9.97085271551
9.98017921164
9.98713613012
9.99197755368
9.99513739793
9.9970901064
9.99825058809
9.99892658849
9.9993182231
9.99954374207
9.99967027643
9.99973731966
9.99977019927
9.99978609818
9.99979631606
9.99980735202
9.99982196044
9.99984034623
9.99986132677
9.99988323915
9.99990453654
9.99992406709
9.99994115787
9.999955545
9.99996728299
9.9999766085
9.99998386892
9.9999894223
9.9999936285
9.99999678191
9.99999916369
10.0000009599
10.0000023598
10.0000034555
10.0000043733
10.0000051385
10.0000058423
10.0000064668
10.0000070878
10.0000076599
10.0000082544
10.0000088085
10.000009394
10.0000099376
10.0000105124
10.0000110401
10.0000115929
10.0000120948
10.0000126083
10.0000130751
10.0000135254
10.0000139561
10.0000143054
10.00001472
10.0000148934
10.0000153682
10.0000152262
9.99999999247
9.99999977101
9.99999955169
9.99999939146
9.9999993197
9.99999935206
9.99999948757
9.9999997183
10.0000000286
10.0000004063
10.0000008365
10.0000013123
10.0000018179
10.0000023512
10.0000028924
10.0000034471
10.0000039886
10.000004538
10.0000050548
10.0000055875
10.0000060659
10.0000065885
10.0000070205
10.0000075597
10.0000079291
10.0000085405
10.0000087959
10.0000095971
10.0000095893
10.0000108516
10.0000101844
10.000012562
10.0000102408
10.000015319
10.0000089918
10.0000201925
10.0000049752
10.0000287301
9.9999966524
10.0000415302
9.99998531348
10.0000537228
9.99998053356
10.0000512757
9.99999629256
10.0000311775
10.0000060214
10.0000704098
9.999871352
10.0003503552
9.99942593388
10.0009218582
9.99889806835
10.0009812932
9.99983843639
10.0000612184
9.99676374446
9.98213324526
9.95869590345
9.91399071463
9.85829996261
9.79051121976
9.72412004812
9.67144564506
9.64028272323
9.63360116608
9.65223967517
9.68929851917
9.7357704921
9.78624507713
9.83582654292
9.88013075997
9.91674109411
9.94503357622
9.96550660617
9.97935677457
9.98812860176
9.993368701
9.99637093937
9.99806780993
9.99904725896
9.99963707459
10.000002029
10.0002213306
10.0003369595
10.0003775043
10.0003667511
10.0003251149
10.0002689433
10.0002099855
10.0001555988
10.0001095536
10.0000730388
10.0000456517
10.0000261409
10.0000129758
10.000004625
9.99999978321
9.99999735415
9.99999655087
9.99999673649
9.99999754097
9.99999864178
9.99999991017
10.0000011783
10.0000024498
10.0000036178
10.0000047514
10.0000057568
10.0000067356
10.000007588
10.0000084308
10.0000091552
10.0000098819
10.0000104991
10.0000111203
10.0000116428
10.0000121571
10.0000125915
10.0000129853
10.0000133366
10.0000135814
10.0000138613
10.0000139052
10.0000141466
10.0000138911
10.0000141819
10.0000134544
9.99999999032
9.99999976345
9.99999953102
9.9999993574
9.9999992724
9.9999992913
9.99999941319
9.99999963048
9.9999999305
10.0000003024
10.0000007328
10.0000012131
10.0000017292
10.0000022749
10.0000028344
10.0000034054
10.0000039706
10.0000045354
10.0000050806
10.0000056228
10.0000061378
10.0000066572
10.000007145
10.0000076547
10.000008125
10.0000086482
10.0000091073
10.0000096826
10.0000101111
10.0000108245
10.000011111
10.0000122151
10.0000119478
10.0000142798
10.0000119962
10.0000180978
10.0000093935
10.0000264444
9.9999999673
10.0000447328
9.99997754196
10.0000777475
9.9999428409
10.0001124023
9.9999292535
10.0000906456
10.0000104477
9.99995638487
10.0001645379
9.99987711467
10.0000287237
10.0004830033
9.99848534776
10.0032230066
9.99773369814
9.99394049909
9.95858139599
9.89210344497
9.78376063723
9.61872348726
9.44128489264
9.2314070507
9.0492751035
8.92270749414