/*--------------------------------*- C++ -*----------------------------------*\
  =========                 |
  \\      /  F ield         | OpenFOAM: The Open Source CFD Toolbox
   \\    /   O peration     | Website:  https://openfoam.org
    \\  /    A nd           | Version:  7
     \\/     M anipulation  |
\*---------------------------------------------------------------------------*/
FoamFile
{
    version     2.0;
    format      ascii;
    class       surfaceScalarField;
    location    "180";
    object      phi;
}
// * * * * * * * * * * * * * * * * * * * * * * * * * * * * * * * * * * * * * //

dimensions      [0 3 -1 0 0 0 0];

internalField   nonuniform List<scalar> 
16192
(
6.92871731364e-10
2.44628268636e-10
4.93460356176e-10
1.99411384389e-10
3.64710522339e-10
1.2874984277e-10
2.82160448961e-10
8.25500818441e-11
2.27609014713e-10
5.45514426891e-11
1.90104876407e-10
3.75041468059e-11
1.63297967165e-10
2.68069178584e-11
1.43469559207e-10
1.9828416735e-11
1.28380861609e-10
1.50887065576e-11
1.16636353262e-10
1.17445174896e-11
1.07333715856e-10
9.30264672411e-12
9.9868499516e-11
7.46522581237e-12
9.38224182472e-11
6.04609087998e-12
8.88975685045e-11
4.92485946256e-12
8.48764651989e-11
4.02111311465e-12
8.15969956007e-11
3.27947945915e-12
7.89362476472e-11
2.66075784408e-12
7.67997738839e-11
2.13648363785e-12
7.51142807831e-11
1.68550293459e-12
7.38225353644e-11
1.29175515756e-12
7.28797439889e-11
9.42800994175e-13
7.22509314089e-11
6.28822016872e-13
7.19090145238e-11
3.41926117997e-13
7.18333677774e-11
7.56557102876e-14
7.20087430931e-11
-1.75366633761e-13
7.24244473663e-11
-4.15695935792e-13
7.30737107763e-11
-6.4925541208e-13
7.3953198473e-11
-8.79480089909e-13
7.50626283261e-11
-1.10942260384e-12
7.64044648939e-11
-1.34182970564e-12
7.79836662719e-11
-1.57919482857e-12
7.98074622805e-11
-1.82378976692e-12
8.18851448899e-11
-2.07767654721e-12
8.42278503399e-11
-2.34269951452e-12
8.68483126923e-11
-2.6204563493e-12
8.97605651986e-11
-2.91224632318e-12
9.29795652614e-11
-3.21899343057e-12
9.65207151326e-11
-3.54114260911e-12
1.00399251282e-10
-3.87852791135e-12
1.04629474806e-10
-4.23021405989e-12
1.09223801971e-10
-4.59431605952e-12
1.14191622427e-10
-4.96780740133e-12
1.19537972031e-10
-5.34633414385e-12
1.25262051319e-10
-5.72406108503e-12
1.31355656896e-10
-6.09358418134e-12
1.37801631588e-10
-6.44594979263e-12
1.44572481242e-10
-6.77082088705e-12
1.51629334778e-10
-7.05682069528e-12
1.58921431706e-10
-7.29205983507e-12
1.6638628685e-10
-7.46481379797e-12
1.7395059847e-10
-7.56426613866e-12
1.81531831456e-10
-7.58118367226e-12
1.89040252315e-10
-7.50836822674e-12
1.96381076396e-10
-7.3407688095e-12
2.0345638635e-10
-7.075253006e-12
2.10166633016e-10
-6.71018910879e-12
2.16411773381e-10
-6.24508358105e-12
2.22092303608e-10
-5.68047557908e-12
2.27110528584e-10
-5.01817411356e-12
2.31372463948e-10
-4.26188972489e-12
2.34790842318e-10
-3.41833956126e-12
2.37289566676e-10
-2.49869352799e-12
2.38809303539e-10
-1.51971519012e-12
2.39313021637e-10
-5.03706123416e-13
2.38789905155e-10
5.23118213596e-13
2.37256524014e-10
1.53337272937e-12
2.3475495906e-10
2.5015464241e-12
2.31348320758e-10
3.4066102647e-12
2.27114824547e-10
4.2334591736e-12
2.22141975532e-10
4.97280404451e-12
2.16522048414e-10
5.61987520757e-12
2.10349185664e-10
6.17280538964e-12
2.03717774101e-10
6.63135012396e-12
1.96721608239e-10
6.99610201895e-12
1.89453407925e-10
7.26813552366e-12
1.82004292842e-10
7.44905090068e-12
1.74462872386e-10
7.5413581428e-12
1.66913804121e-10
7.54900900141e-12
1.59435938804e-10
7.47780996525e-12
1.52100367845e-10
7.33552018308e-12
1.44968731975e-10
7.13159006499e-12
1.38092065101e-10
6.87662619932e-12
1.31510303427e-10
6.58172611452e-12
1.25252452382e-10
6.25782036262e-12
1.19337306321e-10
5.91511996128e-12
1.13774564659e-10
5.56271966146e-12
1.08566178771e-10
5.20836755088e-12
1.03707780098e-10
4.85838341503e-12
9.91900735669e-11
4.51769388726e-12
9.50001153618e-11
4.18994759282e-12
9.11224296897e-11
3.87767667301e-12
8.75399447507e-11
3.58247703976e-12
8.42347497801e-11
3.30518784077e-12
8.1188685744e-11
3.04605726587e-12
7.83837909858e-11
2.80488812126e-12
7.58026238048e-11
2.58116038197e-12
7.34284855307e-11
2.37413118847e-12
7.12455639971e-11
2.18291397498e-12
6.92390163069e-11
2.00653962138e-12
6.7395005247e-11
1.84400238766e-12
6.57007023635e-11
1.69429363816e-12
6.41442667579e-11
1.55642576674e-12
6.27148077309e-11
1.42944867036e-12
6.14023363899e-11
1.31246049771e-12
6.01977108618e-11
1.20461429922e-12
5.90925775949e-11
1.10512171529e-12
5.80793110435e-11
1.01325478682e-12
5.71509524985e-11
9.28346645815e-13
5.63011487176e-11
8.49791853042e-13
5.55240898603e-11
7.77046983296e-13
5.48144459951e-11
7.09632138507e-13
5.41673004222e-11
6.47134072517e-13
5.35780774201e-11
5.89211805248e-13
5.30424607508e-11
5.35605847184e-13
5.25562977563e-11
4.86152606383e-13
5.21154815938e-11
4.40806270469e-13
5.17158006428e-11
3.99671597861e-13
5.13527388779e-11
3.63053004075e-13
5.10212022126e-11
3.31528526359e-13
5.0715131878e-11
3.06062865073e-13
5.0426941872e-11
2.881832273e-13
5.01466779404e-11
2.80257890918e-13
4.98607307847e-11
2.85941874087e-13
4.95498480534e-11
3.10878263698e-13
4.91861424765e-11
3.6370195468e-13
4.87292882867e-11
4.56851481823e-13
4.81253200147e-11
6.03966549865e-13
7.75123394369e-13
9.53356707283e-10
2.28771570784e-10
8.59563292684e-10
2.93204816853e-10
7.45061812103e-10
2.43251340468e-10
6.42011876162e-10
1.85600034289e-10
5.57038372307e-10
1.39524963053e-10
4.88929921301e-10
1.05612614493e-10
4.34653899793e-10
8.10829563135e-11
3.91247878319e-10
6.32344554705e-11
3.56290473515e-10
5.00461289473e-11
3.27919378881e-10
4.01156300165e-11
3.04731412677e-10
3.24906311005e-11
2.85672529264e-10
2.65241276357e-11
2.69946867e-10
2.17717717463e-11
2.56948219025e-10
1.79235261762e-11
2.46210228018e-10
1.47591229431e-11
2.37370622415e-10
1.21191038947e-11
2.30145542858e-10
9.88585617804e-12
2.24311004744e-10
7.97104038909e-12
2.1968939371e-10
6.30713238805e-12
2.16139525513e-10
4.84164145906e-12
2.13549250818e-10
3.53309339438e-12
2.11829895052e-10
2.34819498279e-12
2.1091203615e-10
1.25980163335e-12
2.10742267857e-10
2.45439925441e-13
2.11280696503e-10
-7.13780114662e-13
2.12498985242e-10
-1.63397035268e-12
2.14378812e-10
-2.52906872736e-12
2.16910639567e-10
-3.41129514102e-12
2.20092716278e-10
-4.29148770629e-12
2.23930241075e-10
-5.17934379011e-12
2.28434637517e-10
-6.08358135422e-12
2.3362288601e-10
-7.01202904197e-12
2.39516866958e-10
-7.97164877084e-12
2.46142666472e-10
-8.96849058769e-12
2.53529795722e-10
-1.00075771081e-11
2.61710271201e-10
-1.10927129142e-11
2.70717501836e-10
-1.22262143054e-11
2.80584926423e-10
-1.3408556071e-11
2.91344348095e-10
-1.46379364704e-11
3.03023918701e-10
-1.59097689341e-11
3.15645743011e-10
-1.72161212747e-11
3.29223098399e-10
-1.85451395981e-11
3.43757307874e-10
-1.98805155261e-11
3.59234359146e-10
-2.12010786104e-11
3.75621432986e-10
-2.24806178668e-11
3.92863579412e-10
-2.36880490202e-11
4.1088085196e-10
-2.47880386527e-11
4.2956625513e-10
-2.57421611642e-11
4.48784857091e-10
-2.65105910601e-11
4.683743411e-10
-2.70542192068e-11
4.88147101916e-10
-2.73369410024e-11
5.07893745634e-10
-2.73277349473e-11
5.27387575909e-10
-2.70021008545e-11
5.46389450933e-10
-2.63425426272e-11
5.64652399388e-10
-2.53380987747e-11
5.8192565573e-10
-2.39833436406e-11
5.97958211759e-10
-2.2277541377e-11
6.12502346737e-10
-2.02245186893e-11
6.25317735868e-10
-1.7833480655e-11
6.36176780992e-10
-1.51208642284e-11
6.44871880042e-10
-1.21133824522e-11
6.51225091302e-10
-8.85186501265e-12
6.55099513521e-10
-5.39411548384e-12
6.56410160108e-10
-1.814349374e-12
6.55131497212e-10
1.80176559912e-12
6.51299660435e-10
5.36517555571e-12
6.45008816482e-10
8.79233877104e-12
6.36402460622e-10
1.20128982268e-11
6.25661732051e-10
1.49741052495e-11
6.12993560991e-10
1.76408802417e-11
5.9862086674e-10
1.9992464714e-11
5.82775514784e-10
2.20180455769e-11
5.65693574723e-10
2.37131742682e-11
5.47612112893e-10
2.50774467251e-11
5.28766795962e-10
2.61133367996e-11
5.09389588236e-10
2.68261469237e-11
4.89705916196e-10
2.7224924458e-11
4.69931025543e-10
2.73238015662e-11
4.50265735638e-10
2.71430105422e-11
4.30892150919e-10
2.67090250411e-11
4.11969975954e-10
2.6053694866e-11
3.93633941337e-10
2.52126002302e-11
3.75992597756e-10
2.42230182266e-11
3.59128485591e-10
2.3121889483e-11
3.43099497945e-10
2.19440721213e-11
3.27941145902e-10
2.07210427913e-11
3.13669400107e-10
1.94800899929e-11
3.0028380203e-10
1.82439626525e-11
2.87770592036e-10
1.70308885835e-11
2.76105667101e-10
1.58548598156e-11
2.65257248213e-10
1.47260846135e-11
2.55188193308e-10
1.36515219864e-11
2.45857936913e-10
1.26354346504e-11
2.3722406725e-10
1.16799171518e-11
2.2924357202e-10
1.07853729832e-11
2.2187379284e-10
9.95092824745e-12
2.15073132998e-10
9.17477856926e-12
2.08801560981e-10
8.45447221225e-12
2.03020949936e-10
7.78713552769e-12
1.97695287208e-10
7.1696485946e-12
1.92790783957e-10
6.59877906359e-12
1.88275908706e-10
6.07128197125e-12
1.84121364869e-10
5.5839723939e-12
1.8030002733e-10
5.13377700325e-12
1.7678685029e-10
4.71776958327e-12
1.73558754898e-10
4.33319480612e-12
1.70594503244e-10
3.97748380224e-12
1.6787456256e-10
3.64826453775e-12
1.65380962091e-10
3.34336957475e-12
1.63097142993e-10
3.06084355087e-12
1.61007800376e-10
2.79895261725e-12
1.59098714708e-10
2.55619814791e-12
1.57356568287e-10
2.33133732439e-12
1.55768740365e-10
2.12341368591e-12
1.54323072257e-10
1.93180156697e-12
1.53007590938e-10
1.75626948324e-12
1.51810176345e-10
1.5970692153e-12
1.50718154092e-10
1.45505949951e-12
1.49717792158e-10
1.33187599369e-12
1.48793680169e-10
1.23016175748e-12
1.47927978962e-10
1.15387277396e-12
1.47099563495e-10
1.10866321992e-12
1.46283185063e-10
1.10231176942e-12
1.45449056668e-10
1.14499982253e-12
1.44564000166e-10
1.24875340008e-12
1.43597102717e-10
1.42374564986e-12
1.42538637232e-10
1.66243025533e-12
1.88191648953e-12
9.76213963171e-10
1.90057616538e-10
9.63016130083e-10
3.06402667309e-10
9.06248565519e-10
3.00018921557e-10
8.34083852485e-10
2.57764763351e-10
7.61514582647e-10
2.12094248954e-10
6.94945177676e-10
1.72182035711e-10
6.36438183258e-10
1.39589967252e-10
5.86090361777e-10
1.13582293786e-10
5.4321236616e-10
9.29241417214e-11
5.06878229889e-10
7.64497837465e-11
4.7616392595e-10
6.32049527778e-11
4.50238987298e-10
5.24490842601e-11
4.28391729584e-10
4.36190476336e-11
4.10026471756e-10
3.62888023172e-11
3.94650507971e-10
3.01351051378e-11
3.8185869182e-10
2.49109384753e-11
3.71318854251e-10
2.04257121396e-11
3.62759161651e-10
1.65307512507e-11
3.55957602081e-10
1.31087100201e-11
3.50733423537e-10
1.00658377513e-11
3.46940234502e-10
7.32629978774e-12
3.44460468628e-10
4.82797769625e-12
3.43200947937e-10
2.51933857004e-12
3.43089320711e-10
3.57082665993e-13
3.44071191844e-10
-1.69563652485e-12
3.46107794115e-10
-3.67055882463e-12
3.49174086621e-10
-5.5953483884e-12
3.53257180477e-10
-7.49437721408e-12
3.58355008095e-10
-9.38930458411e-12
3.64475163435e-10
-1.12994894933e-11
3.7163384875e-10
-1.32422580431e-11
3.79854865516e-10
-1.5233038179e-11
3.8916858968e-10
-1.72853661121e-11
3.99610868695e-10
-1.9410763477e-11
4.11221777088e-10
-2.16184797578e-11
4.24044162761e-10
-2.39150929954e-11
4.38121916124e-10
-2.63039617765e-11
4.53497892772e-10
-2.87845261595e-11
4.70211427593e-10
-3.13514634722e-11
4.88295388894e-10
-3.39937206505e-11
5.07772746484e-10
-3.66934667992e-11
5.28652663119e-10
-3.9425041073e-11
5.50926174833e-10
-4.21540081976e-11
5.74561595627e-10
-4.48364758161e-11
5.99499870596e-10
-4.74188639448e-11
6.25650193512e-10
-4.98383371427e-11
6.52886291276e-10
-5.20240951384e-11
6.81043829611e-10
-5.38996513621e-11
7.09919387924e-10
-5.53860941572e-11
7.39271353291e-10
-5.64061223203e-11
7.6882287794e-10
-5.6888396703e-11
7.98266737286e-10
-5.67715192775e-11
8.27271574596e-10
-5.60068581465e-11
8.55488749884e-10
-5.45596342128e-11
8.82558992944e-10
-5.24082562864e-11
9.08118405378e-10
-4.95426706588e-11
9.31803938871e-10
-4.5962992073e-11
9.53258945262e-10
-4.16794473163e-11
9.7213948146e-10
-3.67139469029e-11
9.88122010813e-10
-3.11033338254e-11
1.00091332174e-09
-2.49046462944e-11
1.01026338611e-09
-1.82018966763e-11
1.01598043932e-09
-1.11111518843e-11
1.0179453289e-09
-3.77923857109e-12
1.01612134562e-09
3.62573252552e-12
1.01055707395e-09
1.09294147876e-11
1.00138169359e-09
1.79676713627e-11
9.88793670272e-10
2.4600859998e-11
9.73045409581e-10
3.07222921603e-11
9.54427603309e-10
3.62586027261e-11
9.33256213289e-10
4.11637631213e-11
9.09862861708e-10
4.54113003723e-11
8.84587900404e-10
4.89880360747e-11
8.57775265507e-10
5.18899820079e-11
8.29768377619e-10
5.41201271955e-11
8.00906261503e-10
5.56881697788e-11
7.71519080354e-10
5.66120182457e-11
7.41922725465e-10
5.69200763277e-11
7.12412743785e-10
5.66529202082e-11
6.83258338464e-10
5.58633669238e-11
6.54697266184e-10
5.46147123951e-11
6.26932258487e-10
5.29775615847e-11
6.00129275344e-10
5.10259629683e-11
5.74417588717e-10
4.88335448724e-11
5.49891462341e-10
4.64701736289e-11
5.2661305783e-10
4.39994277944e-11
5.04616152462e-10
4.14769803171e-11
4.83910273352e-10
3.89498301503e-11
4.64484916735e-10
3.64562361861e-11
4.46313600031e-10
3.40261691799e-11
4.29357578051e-10
3.16821002513e-11
4.13569124881e-10
2.94399690731e-11
3.98894342354e-10
2.73102108702e-11
3.85275495694e-10
2.52987567556e-11
3.72652906316e-10
2.34079542704e-11
3.60966445779e-10
2.16373793415e-11
3.50156683886e-10
1.99845295577e-11
3.40165743471e-10
1.84454001217e-11
3.30937913336e-10
1.70149515872e-11
3.22420064557e-10
1.56874817289e-11
3.1456191086e-10
1.44569156801e-11
3.07316146489e-10
1.33170279239e-11
3.00638490247e-10
1.2261609073e-11
2.94487658041e-10
1.12845886621e-11
2.88825282388e-10
1.03801239254e-11
2.83615792449e-10
9.54266285563e-12
2.78826265262e-10
8.76698874359e-12
2.74426255208e-10
8.04825218018e-12
2.70387606609e-10
7.38199579712e-12
2.66684251643e-10
6.76417635591e-12
2.63291993961e-10
6.19118852627e-12
2.6018827631e-10
5.65989457253e-12
2.57351928762e-10
5.16766433113e-12
2.54762892477e-10
4.71243025095e-12
2.52401912448e-10
4.29276280309e-12
2.50250191908e-10
3.90797227029e-12
2.48289001134e-10
3.55824335463e-12
2.46499236335e-10
3.2448088779e-12
2.44860931747e-10
2.97016643413e-12
2.43352746194e-10
2.73833452081e-12
2.41951482593e-10
2.55512499857e-12
2.4063177514e-10
2.42836079802e-12
2.39366226826e-10
2.36785177684e-12
2.38126560719e-10
2.38465930049e-12
2.36886831804e-10
2.48847747668e-12
2.3563049122e-10
2.68008314353e-12
2.34361834635e-10
2.93108524157e-12
3.13524656693e-12
9.71794473379e-10
1.55763151862e-10
9.86818163511e-10
2.91378994245e-10
9.68521263515e-10
3.18315837796e-10
9.2852443313e-10
2.97761609392e-10
8.7867940988e-10
2.6193928786e-10
8.26502909988e-10
2.24358551435e-10
7.76138760408e-10
1.8995413293e-10
7.29614516091e-10
1.60106554508e-10
6.87739488544e-10
1.34799185982e-10
6.50661791852e-10
1.1352749744e-10
6.18194206644e-10
9.56725552457e-11
5.89997883399e-10
8.06454249856e-11
5.65682479981e-10
6.79344687094e-11
5.44858480615e-10
5.71128194664e-11
5.27162728602e-10
4.78308750031e-11
5.12269287587e-10
3.98043973402e-11
4.9989250558e-10
3.28025119184e-11
4.89786129555e-10
2.66371448789e-11
4.81740590993e-10
2.11542659185e-11
4.7557960506e-10
1.62268406419e-11
4.71156677861e-10
1.17492434506e-11
4.68351811601e-10
7.63285979532e-12
4.67068531056e-10
3.80263420164e-12
4.67231265152e-10
1.94362762525e-13
4.68783070222e-10
-3.24742842553e-12
4.71683655836e-10
-6.57113243076e-12
4.75907678076e-10
-9.81935989984e-12
4.81443242934e-10
-1.30299327393e-11
4.88290568095e-10
-1.62366218909e-11
4.96460750122e-10
-1.94696652204e-11
5.05974582998e-10
-2.2756086199e-11
5.16861371365e-10
-2.61198234097e-11
5.29157679303e-10
-2.95816724385e-11
5.42905951219e-10
-3.31590352143e-11
5.58152937898e-10
-3.68654675198e-11
5.74947856576e-10
-4.07100138011e-11
5.93340212474e-10
-4.46963205404e-11
6.1337720989e-10
-4.88215268155e-11
6.35100688317e-10
-5.30749450569e-11
6.58543533641e-10
-5.74365685291e-11
6.83725541955e-10
-6.18754764591e-11
7.10648755246e-10
-6.63482538366e-11
7.39292349261e-10
-7.07975990862e-11
7.69607233482e-10
-7.51513535548e-11
8.01510620741e-10
-7.93222405932e-11
8.34880929666e-10
-8.32086305754e-11
8.69553482181e-10
-8.66966265927e-11
9.05317524404e-10
-8.96636663595e-11
9.41915100941e-10
-9.1983636876e-11
9.79042214388e-10
-9.35331951107e-11
1.01635247595e-09
-9.41986108051e-11
1.05346309629e-09
-9.38820856345e-11
1.08996262738e-09
-9.25063294198e-11
1.12541949169e-09
-9.00164338428e-11
1.15939025826e-09
-8.63789547142e-11
1.19142704885e-09
-8.15793913855e-11
1.22108425486e-09
-7.56201285821e-11
1.24792535851e-09
-6.85204841862e-11
1.27153060244e-09
-6.03191293506e-11
1.29150600348e-09
-5.107868127e-11
1.30749466662e-09
-4.0893266221e-11
1.31919180191e-09
-2.98990012654e-11
1.32636305493e-09
-1.82823883049e-11
1.32886224989e-09
-6.27843194568e-12
1.32664341569e-09
5.84455311923e-12
1.31976419373e-09
1.78086084462e-11
1.3083802077e-09
2.93516155116e-11
1.29273136e-09
4.02496537581e-11
1.27312305088e-09
5.03305371781e-11
1.24990727871e-09
5.94743027471e-11
1.22346748829e-09
6.76034756875e-11
1.1942076476e-09
7.46710598762e-11
1.16254414359e-09
8.065145797e-11
1.12889944235e-09
8.55346023915e-11
1.09369692158e-09
8.93225703356e-11
1.05735598756e-09
9.2029031072e-11
1.0202864372e-09
9.36815021274e-11
9.82881599248e-10
9.43248550325e-11
9.45510665327e-10
9.40238026681e-11
9.08511182997e-10
9.28628058009e-11
8.72182733535e-10
9.09431262458e-11
8.36782522183e-10
8.83777447635e-11
8.02523201895e-10
8.52852618507e-11
7.69572888252e-10
8.17838430838e-11
7.38057064961e-10
7.79859865383e-11
7.08061937139e-10
7.39945493405e-11
6.79638746818e-10
6.99001675069e-11
6.52808595199e-10
6.57799808725e-11
6.27567390253e-10
6.16974416117e-11
6.03890630369e-10
5.77029301504e-11
5.81737827103e-10
5.38349045354e-11
5.61056450435e-10
5.012134611e-11
5.41785344522e-10
4.65813160389e-11
5.23857608473e-10
4.32264905718e-11
5.07202968727e-10
4.00625900328e-11
4.91749688063e-10
3.7090654087e-11
4.77426066242e-10
3.43081434412e-11
4.6416158954e-10
3.17098668399e-11
4.51887785258e-10
2.92887438956e-11
4.40538832481e-10
2.70364206315e-11
4.30051975155e-10
2.49437573867e-11
4.20367776838e-10
2.30012090457e-11
4.11430250787e-10
2.1199116564e-11
4.0318689281e-10
1.95279269271e-11
3.95588639428e-10
1.79783566792e-11
3.88589768914e-10
1.65415120495e-11
3.82147759007e-10
1.52089768724e-11
3.76223111334e-10
1.39728778326e-11
3.70779149791e-10
1.2825935293e-11
3.65781797349e-10
1.17615069163e-11
3.61199333722e-10
1.07736306226e-11
3.57002134327e-10
9.85707295229e-12
3.53162389607e-10
9.00738870466e-12
3.49653802712e-10
8.22099760254e-12
3.46451263298e-10
7.49528359698e-12
3.43530496068e-10
6.82872190995e-12
3.40867685512e-10
6.22103744567e-12
3.38439084529e-10
5.67339460542e-12
3.36220626445e-10
5.18861054984e-12
3.3418758128e-10
4.77136707912e-12
3.32314333691e-10
4.42836141438e-12
3.30574420402e-10
4.16826442587e-12
3.28941058211e-10
4.00120590035e-12
3.27388518725e-10
3.93719239854e-12
3.25894804559e-10
3.98218695991e-12
3.24445724579e-10
4.12916009401e-12
3.23037814612e-10
4.33899357888e-12
4.50693030102e-12
9.6402817157e-10
1.29234989109e-10
9.88014065338e-10
2.67393117603e-10
9.90473960338e-10
3.15855959063e-10
9.73484873793e-10
3.14750711642e-10
9.43981562036e-10
2.91442615321e-10
9.07998005858e-10
2.60342123494e-10
8.69717287032e-10
2.28234867914e-10
8.31776618866e-10
1.98047239144e-10
7.95724535038e-10
1.70851286594e-10
7.62394811411e-10
1.4685723814e-10
7.32171173054e-10
1.25896210935e-10
7.05164071772e-10
1.07652543819e-10
6.81325116748e-10
9.17734414603e-11
6.60519587185e-10
7.79183668771e-11
6.42571529855e-10
6.57789502436e-11
6.27291230206e-10
5.50847148856e-11
6.14491492481e-10
4.56022674449e-11
6.03996894484e-10
3.71317604795e-11
5.95648686007e-10
2.95024916987e-11
5.89307027549e-10
2.25685159704e-11
5.84851640376e-10
1.62046469364e-11
5.82181538215e-10
1.03029775558e-11
5.81214255674e-10
4.76993148277e-12
5.81884825512e-10
-4.76193366197e-13
5.84144649023e-10
-5.50723941198e-12
5.87960342344e-10
-1.03868145892e-11
5.93312608733e-10
-1.51716166347e-11
6.00195135892e-10
-1.99124519179e-11
6.08613512255e-10
-2.46549920678e-11
6.18584140357e-10
-2.94402890589e-11
6.30133115059e-10
-3.43050586291e-11
6.43295025103e-10
-3.9281733241e-11
6.58111629058e-10
-4.43982782298e-11
6.74630349041e-10
-4.96777590569e-11
6.92902519585e-10
-5.51376438266e-11
7.12981323226e-10
-6.07888249635e-11
7.3491934175e-10
-6.66343480852e-11
7.58765651983e-10
-7.26678472754e-11
7.84562401866e-10
-7.88717059575e-11
8.12340816881e-10
-8.52149948896e-11
8.42116614447e-10
-9.16512851176e-11
8.7388484645e-10
-9.81164960473e-11
9.07614253236e-10
-1.04527014465e-10
9.43241296749e-10
-1.1077840328e-10
9.8066414638e-10
-1.16745093229e-10
1.01973701019e-09
-1.22281493369e-10
1.06026532165e-09
-1.27224932197e-10
1.10200238031e-09
-1.31400713604e-10
1.14464806816e-09
-1.3462930714e-10
1.18785017771e-09
-1.36735280432e-10
1.2312086519e-09
-1.37557053913e-10
1.27428262599e-09
-1.36956021783e-10
1.31659960653e-09
-1.34823265543e-10
1.35766558217e-09
-1.31082359257e-10
1.3969746667e-09
-1.25687984307e-10
1.43401739887e-09
-1.18622065369e-10
1.46828798314e-09
-1.09890653316e-10
1.49929164925e-09
-9.9524091643e-11
1.52655298886e-09
-8.75804138054e-11
1.54962539321e-09
-7.41510366555e-11
1.56810265656e-09
-5.93704896089e-11
1.58163550378e-09
-4.34318199035e-11
1.58995356193e-09
-2.66004311918e-11
1.59288733438e-09
-9.21220348857e-12
1.59038278899e-09
8.34908487407e-12
1.58250528602e-09
2.56860839926e-11
1.56943294243e-09
4.24239192771e-11
1.5514401867e-09
5.82423592431e-11
1.52887481989e-09
7.28958454546e-11
1.50213556508e-09
8.62134931023e-11
1.47165546287e-09
9.80835098198e-11
1.43789076473e-09
1.08435688635e-10
1.4013125501e-09
1.17229604028e-10
1.36239986334e-09
1.24447223251e-10
1.32163417479e-09
1.30088197229e-10
1.27949418698e-09
1.34168962747e-10
1.23644951889e-09
1.36726120593e-10
1.19295262899e-09
1.37821702469e-10
1.14942960894e-09
1.3754678772e-10
1.10627118538e-09
1.36021201753e-10
1.06382522326e-09
1.33389067848e-10
1.02239156608e-09
1.29811387917e-10
9.82219521987e-10
1.25457297686e-10
9.43507879693e-10
1.20495481994e-10
9.06407062284e-10
1.15086804528e-10
8.71022888584e-10
1.09378726616e-10
8.37421384955e-10
1.03501676802e-10
8.0563413911e-10
9.75672335859e-11
7.75663779604e-10
9.16678084111e-11
7.47489270679e-10
8.5877446071e-11
7.21070814344e-10
8.02533669799e-11
6.96354237857e-10
7.48379273008e-11
6.73274812686e-10
6.96607441254e-11
6.51760499305e-10
6.47408047676e-11
6.31734644981e-10
6.00884428831e-11
6.13118180774e-10
5.57071144065e-11
5.95831374179e-10
5.15949437134e-11
5.79795196575e-10
4.77460357112e-11
5.64932363631e-10
4.4151565806e-11
5.51168102426e-10
4.08006686374e-11
5.38430693873e-10
3.76811507713e-11
5.26651832588e-10
3.47800534001e-11
5.15766840524e-10
3.20840901787e-11
5.05714764551e-10
2.95799831762e-11
4.96438383055e-10
2.72547174358e-11
4.8788414163e-10
2.50957319695e-11
4.80002033908e-10
2.30910625745e-11
4.72745439784e-10
2.12294496581e-11
4.66070930303e-10
1.95004224219e-11
4.59938045758e-10
1.78943692641e-11
4.54309051447e-10
1.64026030847e-11
4.49148673783e-10
1.50174292918e-11
4.44423818287e-10
1.37322235554e-11
4.40103270415e-10
1.25415256538e-11
4.361573804e-10
1.14411547376e-11
4.32557734857e-10
1.04283496389e-11
4.29276821105e-10
9.50193453898e-12
4.26287696261e-10
8.66250403633e-12
4.23563683083e-10
7.9126096352e-12
4.21078130324e-10
7.25690714614e-12
4.18804298435e-10
6.70218208058e-12
4.16715462842e-10
6.2570903451e-12
4.14785360569e-10
5.93130012762e-12
4.12989113663e-10
5.73343296862e-12
4.11304628196e-10
5.66666782955e-12
4.09713785073e-10
5.72000023139e-12
4.08200267052e-10
5.85250996422e-12
5.97102541912e-12
9.57680700594e-10
1.09054297445e-10
9.83018965458e-10
2.42054869779e-10
9.96026331395e-10
3.02848609297e-10
9.93941515165e-10
3.16835543462e-10
9.79898104006e-10
3.05486042081e-10
9.57987517244e-10
2.82252726061e-10
9.31652833592e-10
2.54569567672e-10
9.03420435503e-10
2.26279653673e-10
8.75023359438e-10
1.99248379424e-10
8.47594397499e-10
1.74286217141e-10
8.21838138051e-10
1.51652487708e-10
7.98163921128e-10
1.31326778286e-10
7.76782794214e-10
1.13154586093e-10
7.57776153838e-10
9.69250250895e-11
7.41143470071e-10
8.24116519014e-11
7.26835028422e-10
6.93931744026e-11
7.14774127915e-10
5.76631857096e-11
7.04871943914e-10
4.70339620211e-11
6.97037331069e-10
3.73371217516e-11
6.91183160612e-10
2.8422703166e-11
6.87230299798e-10
2.01575238765e-11
6.85109997966e-10
1.24232947369e-11
6.84765203565e-10
5.11474028672e-12
6.86151169277e-10
-1.86214580573e-12
6.89235575818e-10
-8.59163399495e-12
6.93998345605e-10
-1.51495739252e-11
7.00431247556e-10
-2.16045098273e-11
7.0853734311e-10
-2.80185405919e-11
7.1833030583e-10
-3.44479499498e-11
7.29833622589e-10
-4.0943603177e-11
7.43079666836e-10
-4.75511025517e-11
7.58108620058e-10
-5.43106885528e-11
7.74967205803e-10
-6.12568685249e-11
7.93707190013e-10
-6.84177502841e-11
8.14383592597e-10
-7.58140558414e-11
8.37052547547e-10
-8.34577916419e-11
8.61768743924e-10
-9.13505583006e-11
8.88582378395e-10
-9.94814974286e-11
9.17535554131e-10
-1.07824898873e-10
9.48658073189e-10
-1.16337532181e-10
9.81962593949e-10
-1.24955824638e-10
1.0174391661e-09
-1.33593086854e-10
1.05504921784e-09
-1.42137084049e-10
1.09471915753e-09
-1.50448359194e-10
1.13633386589e-09
-1.58359815342e-10
1.17973049044e-09
-1.65678128276e-10
1.22469309581e-09
-1.72187543625e-10
1.27094884464e-09
-1.77656463271e-10
1.31816644081e-09
-1.81846898104e-10
1.36595750768e-09
-1.84526335317e-10
1.41388133779e-09
-1.85480864763e-10
1.46145298423e-09
-1.84527641328e-10
1.50815395687e-09
-1.81524203677e-10
1.55344399461e-09
-1.76372355193e-10
1.59677196937e-09
-1.69015910727e-10
1.63758461278e-09
-1.59434655109e-10
1.67533352648e-09
-1.47639509774e-10
1.70948239729e-09
-1.33672903915e-10
1.73951553742e-09
-1.17613496943e-10
1.76494700681e-09
-9.95824539092e-11
1.78533121635e-09
-7.97546553283e-11
1.80028027732e-09
-5.83808487612e-11
1.80949069656e-09
-3.58108327191e-11
1.81277126717e-09
-1.24927725719e-11
1.81006077199e-09
1.10595650511e-11
1.80143223459e-09
3.43145907648e-11
1.78708520616e-09
5.67709036296e-11
1.76732599315e-09
7.80015174602e-11
1.74253901424e-09
9.76827620659e-11
1.71315981129e-09
1.15592629297e-10
1.67965770594e-09
1.31585546914e-10
1.64252584003e-09
1.45567487356e-10
1.60227329003e-09
1.57482090119e-10
1.55941814143e-09
1.67302312879e-10
1.51448225909e-09
1.75024026747e-10
1.46798656666e-09
1.80664609386e-10
1.42044455804e-09
1.84268091022e-10
1.37235312208e-09
1.85913108136e-10
1.32418170186e-09
1.85718185433e-10
1.27636169039e-09
1.83841198159e-10
1.22927772258e-09
1.80473027394e-10
1.18326181328e-09
1.75827294987e-10
1.13859060343e-09
1.70128510388e-10
1.09548548645e-09
1.63600605961e-10
1.05411509848e-09
1.56457202577e-10
1.01459953433e-09
1.48894302989e-10
9.77015649824e-10
1.4108557472e-10
9.41402890138e-10
1.33180007044e-10
9.0776919989e-10
1.25301512019e-10
8.76096695772e-10
1.17549962495e-10
8.46346894911e-10
1.10003178533e-10
8.18465384147e-10
1.02719446707e-10
7.92385883972e-10
9.5740250553e-11
7.68033708816e-10
8.90929835509e-11
7.45328656087e-10
8.27934964694e-11
7.24187374138e-10
7.6848394385e-11
7.04525267876e-10
7.12570451956e-11
6.86258002839e-10
6.60132932442e-11
6.69302666748e-10
6.11068918088e-11
6.53578643201e-10
5.65246796982e-11
6.3900824666e-10
5.22515326514e-11
6.25517161806e-10
4.82711216641e-11
6.13034724355e-10
4.45665093798e-11
6.01494074623e-10
4.11206132691e-11
5.9083220998e-10
3.79165613326e-11
5.80989957506e-10
3.49379628602e-11
5.71911884155e-10
3.21691137728e-11
5.63546158039e-10
2.95951533036e-11
5.55844371477e-10
2.72021864339e-11
5.48761333846e-10
2.49773844852e-11
5.4225484022e-10
2.29090746442e-11
5.36285420163e-10
2.09868278059e-11
5.30816069981e-10
1.92015528852e-11
5.2581197119e-10
1.75456044276e-11
5.21240198243e-10
1.60129086333e-11
5.17069419673e-10
1.4599110236e-11
5.13269599273e-10
1.33017381452e-11
5.09811707966e-10
1.21203798173e-11
5.06667463155e-10
1.10568402668e-11
5.03809120739e-10
1.0115236803e-11
5.01209354941e-10
9.30193661186e-12
4.98841268975e-10
8.62516660697e-12
4.96678572718e-10
8.09398831524e-12
4.94695902583e-10
7.71609673257e-12
4.92869029327e-10
7.49353644345e-12
4.91174000993e-10
7.41502554499e-12
4.89582674579e-10
7.44383471285e-12
7.50321446035e-12
9.53097974329e-10
9.34563319484e-11
9.77072684931e-10
2.18080176088e-10
9.95018859962e-10
2.84902450336e-10
1.0021943076e-09
3.09660111307e-10
9.99208517736e-10
3.08471847428e-10
9.88456711436e-10
2.93004548061e-10
9.72469794876e-10
2.70556500248e-10
9.5337147455e-10
2.45377990365e-10
9.32786271518e-10
2.19833599159e-10
9.11896426097e-10
1.95176079571e-10
8.91532663873e-10
1.72016267209e-10
8.72260194901e-10
1.50599264761e-10
8.54449570643e-10
1.30965228032e-10
8.38331757494e-10
1.13042856042e-10
8.24039696269e-10
9.67037309901e-11
8.11639123488e-10
8.17937650262e-11
8.01151159977e-10
6.81511669547e-11
7.92568711062e-10
5.56164284511e-11
7.85868271639e-10
4.40375783526e-11
7.81018347373e-10
3.32726441319e-11
7.77985399191e-10
2.31904881285e-11
7.76737983084e-10
1.36707261162e-11
7.77249578879e-10
4.60315878527e-12
7.79500468299e-10
-4.11302210381e-12
7.83478908169e-10
-1.25700621128e-11
7.89181810561e-10
-2.08524661399e-11
7.96615041707e-10
-2.90377325738e-11
8.05793423511e-10
-3.71969159759e-11
8.16740492703e-10
-4.53950148882e-11
8.29488046015e-10
-5.36911545768e-11
8.44075479167e-10
-6.21385362801e-11
8.60548910432e-10
-7.07841230058e-11
8.78960065247e-10
-7.96680292175e-11
8.99364885633e-10
-8.88225792785e-11
9.21821817194e-10
-9.82709987228e-11
9.46389716776e-10
-1.08025705183e-10
9.73125316446e-10
-1.18086174421e-10
1.00208017495e-09
-1.28436374657e-10
1.03329704834e-09
-1.39041792972e-10
1.06680561965e-09
-1.49846125772e-10
1.10261754693e-09
-1.6076777531e-10
1.14072082593e-09
-1.71696389774e-10
1.18107352265e-09
-1.82489804538e-10
1.22359702037e-09
-1.92971879761e-10
1.26816904813e-09
-2.02931864176e-10
1.31461691256e-09