/*--------------------------------*- C++ -*----------------------------------*\
  =========                 |
  \\      /  F ield         | OpenFOAM: The Open Source CFD Toolbox
   \\    /   O peration     | Website:  https://openfoam.org
    \\  /    A nd           | Version:  7
     \\/     M anipulation  |
\*---------------------------------------------------------------------------*/
FoamFile
{
    version     2.0;
    format      ascii;
    class       volVectorField;
    location    "180";
    object      U;
}
// * * * * * * * * * * * * * * * * * * * * * * * * * * * * * * * * * * * * * //

dimensions      [0 1 -1 0 0 0 0];

internalField   nonuniform List<vector> 
8192
(
(0.00104343790807 0.000156562091927 0)
(0.000759252536026 0.000127623286009 0)
(0.00054922936225 8.23998993725e-05 0)
(0.000413997421632 5.28320523802e-05 0)
(0.000326252456752 3.4912923321e-05 0)
(0.000267336890317 2.40026539558e-05 0)
(0.000226177819886 1.71564274294e-05 0)
(0.000196331216878 1.26901867104e-05 0)
(0.000173984269323 9.65677219683e-06 0)
(0.000156811017518 7.51649119332e-06 0)
(0.000143340844236 5.95369390343e-06 0)
(0.000132609417838 4.77774451992e-06 0)
(0.000123962187368 3.86949816319e-06 0)
(0.000116940791521 3.15191005604e-06 0)
(0.00011121538157 2.57351239337e-06 0)
(0.000106543014912 2.09886685386e-06 0)
(0.000102741275679 1.70288502021e-06 0)
(9.96710537799e-05 1.36734952822e-06 0)
(9.72249949869e-05 1.07872187814e-06 0)
(9.53195623344e-05 8.26723300842e-07 0)
(9.38894587861e-05 6.03392636272e-07 0)
(9.28836322546e-05 4.02446090798e-07 0)
(9.22623653969e-05 2.18832715518e-07 0)
(9.19951246728e-05 4.8419654584e-08 0)
(9.20589509571e-05 -1.12234645607e-07 0)
(9.2437241894e-05 -2.66045398907e-07 0)
(9.31188212113e-05 -4.15523463731e-07 0)
(9.40972219196e-05 -5.62867257541e-07 0)
(9.53701291515e-05 -7.1003046646e-07 0)
(9.69389396608e-05 -8.5877101161e-07 0)
(9.88084039461e-05 -1.01068469028e-06 0)
(0.000100986322274 -1.16722545083e-06 0)
(0.000103483268589 -1.32971299021e-06 0)
(0.000106312316947 -1.49932768929e-06 0)
(0.000109488744341 -1.67709206355e-06 0)
(0.00011302968185 -1.86383764683e-06 0)
(0.000116953683494 -2.06015579556e-06 0)
(0.000121280179452 -2.26633126983e-06 0)
(0.000126028778505 -2.48225786326e-06 0)
(0.000131218384697 -2.70733699833e-06 0)
(0.000136866097138 -2.94036227809e-06 0)
(0.000142985871615 -3.17939673685e-06 0)
(0.000149586940453 -3.42165385206e-06 0)
(0.000156672014944 -3.66339909442e-06 0)
(0.000164235333258 -3.89989387606e-06 0)
(0.00017226066463 -4.12540786728e-06 0)
(0.000180719432211 -4.33332536771e-06 0)
(0.000189569162253 -4.51636524498e-06 0)
(0.00019875249055 -4.66691829445e-06 0)
(0.000208196939876 -4.7774808307e-06 0)
(0.000217815606605 -4.84113032874e-06 0)
(0.000227508755153 -4.85195755025e-06 0)
(0.000237166133614 -4.80535566512e-06 0)
(0.000246669650375 -4.69809203808e-06 0)
(0.000255895976157 -4.52816192384e-06 0)
(0.000264718732394 -4.29452102963e-06 0)
(0.000273010180094 -3.99685349187e-06 0)
(0.000280642609273 -3.63550437061e-06 0)
(0.000287489812603 -3.21163143268e-06 0)
(0.00029342911522 -2.72760942393e-06 0)
(0.000298344516011 -2.18773731921e-06 0)
(0.000302131461756 -1.59916385791e-06 0)
(0.000304703276938 -9.72617721674e-07 0)
(0.000305998288113 -3.22371918986e-07 0)
(0.000305985873147 3.34795656702e-07 0)
(0.000304669714668 9.81358546797e-07 0)
(0.000302087349167 1.60098971142e-06 0)
(0.000298306099084 2.1802305694e-06 0)
(0.000293416412995 2.7094138711e-06 0)
(0.00028752435205 3.18259458848e-06 0)
(0.000280744975325 3.59672013285e-06 0)
(0.00027319758981 3.95059544937e-06 0)
(0.000265002854249 4.24406407934e-06 0)
(0.000256281204697 4.47750529213e-06 0)
(0.000247152010345 4.65160673514e-06 0)
(0.000237732928491 4.76739257644e-06 0)
(0.000228138985746 4.82646921139e-06 0)
(0.000218481072965 4.83136576091e-06 0)
(0.000208863835473 4.78579837776e-06 0)
(0.000199383236256 4.69473291717e-06 0)
(0.000190124223885 4.5642176416e-06 0)
(0.000181158910129 4.40104076756e-06 0)
(0.000172545515858 4.2123047133e-06 0)
(0.000164328163718 4.00500503208e-06 0)
(0.00015653744557 3.78567677522e-06 0)
(0.000149191597427 3.56014058333e-06 0)
(0.000142298075796 3.33335523256e-06 0)
(0.000135855333677 3.10936538562e-06 0)
(0.000129854626346 2.89132408784e-06 0)
(0.000124281720914 2.6815664594e-06 0)
(0.000119118428833 2.48171307073e-06 0)
(0.000114343919642 2.29278530544e-06 0)
(0.0001099358045 2.11532021809e-06 0)
(0.000105870998735 1.94947665016e-06 0)
(0.000102126385107 1.79512839761e-06 0)
(9.8679305466e-05 1.65194264446e-06 0)
(9.55079099748e-05 1.51944396062e-06 0)
(9.25913916978e-05 1.39706494399e-06 0)
(8.99101313946e-05 1.28418535768e-06 0)
(8.74457737945e-05 1.1801615281e-06 0)
(8.51812528707e-05 1.08434792842e-06 0)
(8.31007802377e-05 9.96112490713e-07 0)
(8.11898076728e-05 9.14847149027e-07 0)
(7.94349722373e-05 8.39974718531e-07 0)
(7.78240302411e-05 7.70953151498e-07 0)
(7.63457846123e-05 7.07277897787e-07 0)
(7.49900087286e-05 6.48483063567e-07 0)
(7.37473686669e-05 5.94141853321e-07 0)
(7.26093447783e-05 5.43866785947e-07 0)
(7.15681526898e-05 4.97310069309e-07 0)
(7.06166629474e-05 4.54164568644e-07 0)
(6.97483177071e-05 4.14165806411e-07 0)
(6.89570418191e-05 3.77095555358e-07 0)
(6.82371444294e-05 3.42787742198e-07 0)
(6.75832054445e-05 3.11137668085e-07 0)
(6.6989938784e-05 2.821160131e-07 0)
(6.64520206314e-05 2.55789822631e-07 0)
(6.59638652932e-05 2.32353922608e-07 0)
(6.55193222979e-05 2.1217825687e-07 0)
(6.51112538179e-05 1.95880233647e-07 0)
(6.47309272e-05 1.84437265472e-07 0)
(6.43671166799e-05 1.79365050187e-07 0)
(6.40047415841e-05 1.83002799416e-07 0)
(6.36227704564e-05 1.98962088766e-07 0)
(6.31910339392e-05 2.32769250995e-07 0)
(6.26658756885e-05 2.92384948367e-07 0)
(6.19869493129e-05 3.86538591914e-07 0)
(6.11043300753e-05 4.96078972396e-07 0)
(0.00121014829266 0.000302975897229 0)
(0.00116026879998 0.000315274368795 0)
(0.00102696006706 0.000238080757272 0)
(0.00088772716049 0.000171616074325 0)
(0.000767392159021 0.000124208899675 0)
(0.000669419707909 9.15947272313e-05 0)
(0.000591093645501 6.904951947e-05 0)
(0.000528577137992 5.31602382116e-05 0)
(0.000478424545173 4.16862947231e-05 0)
(0.000437894305533 3.31904944039e-05 0)
(0.000404896506597 2.67476978078e-05 0)
(0.000377858522842 2.17531862068e-05 0)
(0.000355596413608 1.78034320808e-05 0)
(0.000337212855056 1.46229668088e-05 0)
(0.000322021406108 1.20193510769e-05 0)
(0.000309491744277 9.85509334647e-06 0)
(0.000299210345774 8.02983297416e-06 0)
(0.000290852190465 6.46881537724e-06 0)
(0.00028416025501 5.11528660649e-06 0)
(0.000278930508303 3.92537383464e-06 0)
(0.000275000816852 2.86457240867e-06 0)
(0.000272242653357 1.90529087978e-06 0)
(0.000270554835969 1.02510576087e-06 0)
(0.000269858754565 2.05501206866e-07 0)
(0.000270094697191 -5.6905391899e-07 0)
(0.000271218996317 -1.31178642462e-06 0)
(0.000273201790235 -2.03412744924e-06 0)
(0.000276025249003 -2.74609614779e-06 0)
(0.000279682147741 -3.45658259848e-06 0)
(0.000284174692706 -4.17355103728e-06 0)
(0.000289513522299 -4.90417675698e-06 0)
(0.000295716815057 -5.65492403769e-06 0)
(0.000302809441899 -6.43156820355e-06 0)
(0.000310822101395 -7.23916166541e-06 0)
(0.000319790375805 -8.08194141273e-06 0)
(0.000329753642831 -8.96317391193e-06 0)
(0.000340753774744 -9.884932951e-06 0)
(0.000352833554086 -1.08478071553e-05 0)
(0.000366034735692 -1.18505372043e-05 0)
(0.000380395690749 -1.28895891161e-05 0)
(0.000395948583496 -1.39586798939e-05 0)
(0.000412716058503 -1.50482860797e-05 0)
(0.000430707460015 -1.61451837888e-05 0)
(0.000449914666893 -1.72320894051e-05 0)
(0.000470307706964 -1.82874893108e-05 0)
(0.000491830407935 -1.92857592402e-05 0)
(0.000514396436079 -2.01976701054e-05 0)
(0.000537886148538 -2.09913483901e-05 0)
(0.000562144711822 -2.16336965729e-05 0)
(0.000586981886842 -2.20921811231e-05 0)
(0.00061217372353 -2.23367725703e-05 0)
(0.000637466142432 -2.23417079165e-05 0)
(0.000662580045787 -2.2086700212e-05 0)
(0.000687217297179 -2.15573193195e-05 0)
(0.000711066784206 -2.07445451396e-05 0)
(0.000733809955276 -1.96438609596e-05 0)
(0.000755125675193 -1.82544799731e-05 0)
(0.000774694757438 -1.65791963317e-05 0)
(0.000792204852867 -1.46250590519e-05 0)
(0.00080735649079 -1.24049625301e-05 0)
(0.000819871143062 -9.94030208864e-06 0)
(0.00082950206166 -7.26435746601e-06 0)
(0.000836047747087 -4.42485163133e-06 0)
(0.000839366191122 -1.48355551835e-06 0)
(0.000839386660685 1.48792564014e-06 0)
(0.000836115940894 4.41507090245e-06 0)
(0.000829637425226 7.22808652489e-06 0)
(0.000820103217347 9.86848543458e-06 0)
(0.000807721083311 1.22928412308e-05 0)
(0.000792739387547 1.44727579432e-05 0)
(0.000775433233747 1.63918975498e-05 0)
(0.000756093684175 1.80421446186e-05 0)
(0.000735020217284 1.9420495611e-05 0)
(0.000712515640074 2.05270711962e-05 0)
(0.000688882501667 2.13641422869e-05 0)
(0.000664420085887 2.19361266076e-05 0)
(0.000639421122836 2.22504208645e-05 0)
(0.000614167642713 2.23185987633e-05 0)
(0.000588925927156 2.21573251247e-05 0)
(0.000563941047396 2.17885089435e-05 0)
(0.000539431761199 2.12385823559e-05 0)
(0.000515586507066 2.05371049149e-05 0)
(0.000492560985019 1.97150363783e-05 0)
(0.000470477493342 1.88030143012e-05 0)
(0.000449425909463 1.78298829329e-05 0)
(0.000429466012062 1.68216079698e-05 0)
(0.000410630749445 1.5800612828e-05 0)
(0.000392930049368 1.47855014832e-05 0)
(0.000376354812202 1.37910927813e-05 0)
(0.000360880805848 1.28286767414e-05 0)
(0.000346472265801 1.19064072234e-05 0)
(0.000333085082574 1.10297593768e-05 0)
(0.000320669523341 1.02019983944e-05 0)
(0.000309172482664 9.42462362733e-06 0)
(0.000298539289132 8.69776710686e-06 0)
(0.00028871511351 8.02053672283e-06 0)
(0.000279646032536 7.39130224495e-06 0)
(0.000271279804146 6.80792715983e-06 0)
(0.000263566406986 6.26795209541e-06 0)
(0.000256458391772 5.76873662865e-06 0)
(0.000249911085546 5.30756652912e-06 0)
(0.000243882683304 4.88173295231e-06 0)
(0.000238334255088 4.48858948113e-06 0)
(0.000233229691007 4.12559200061e-06 0)
(0.000228535601677 3.79032568479e-06 0)
(0.00022422118732 3.4805225737e-06 0)
(0.000220258085211 3.194072697e-06 0)
(0.000216620202114 2.92903115748e-06 0)
(0.000213283535776 2.68362331379e-06 0)
(0.000210225987254 2.45624994187e-06 0)
(0.000207427163757 2.24549424368e-06 0)
(0.000204868169654 2.05013262107e-06 0)
(0.000202531381117 1.86915144297e-06 0)
(0.000200400197537 1.70177250118e-06 0)
(0.000198458760078 1.54749067095e-06 0)
(0.000196691624445 1.40612848238e-06 0)
(0.000195083371061 1.27791412042e-06 0)
(0.000193618131479 1.1635920023e-06 0)
(0.0001922790056 1.06457889283e-06 0)
(0.000191047342289 9.83183758436e-07 0)
(0.000189901861844 9.22915840805e-07 0)
(0.000188817627173 8.88909510937e-07 0)
(0.000187764959077 8.88482331846e-07 0)
(0.000186708634708 9.31761975184e-07 0)
(0.000185608356374 1.03197142704e-06 0)
(0.000184423105845 1.20358216428e-06 0)
(0.000183126873567 1.45049395532e-06 0)
(0.000181741107543 1.7005055257e-06 0)
(0.00122477693643 0.000268050679886 0)
(0.00124110725968 0.000383748789864 0)
(0.00119632940519 0.000347692967696 0)
(0.00111381274752 0.000283753470489 0)
(0.00102118299848 0.000225036295684 0)
(0.000932134246607 0.000177788576131 0)
(0.000852085350998 0.000141230671082 0)
(0.000782418268822 0.000113162719524 0)
(0.00072275374588 9.1500973228e-05 0)
(0.000672057981472 7.46018648083e-05 0)
(0.000629146979737 6.12451736821e-05 0)
(0.000592897864479 5.05428556134e-05 0)
(0.000562323658804 4.18501244031e-05 0)
(0.000536587648857 3.46958902357e-05 0)
(0.000514993267025 2.87323059718e-05 0)
(0.000496965887866 2.36992271168e-05 0)
(0.000482033629486 1.93994037233e-05 0)
(0.000469809930178 1.56811466495e-05 0)
(0.000459978728789 1.24261391412e-05 0)
(0.000452282256395 9.54078669462e-06 0)
(0.000446511141145 6.95001163656e-06 0)
(0.000442496450003 4.59275051458e-06 0)
(0.000440103306601 2.41864973017e-06 0)
(0.000439225771935 3.85614458518e-07 0)
(0.000439782728035 -1.54202664928e-06 0)
(0.000441714551014 -3.39489867348e-06 0)
(0.000444980403671 -5.19962695409e-06 0)
(0.000449556010943 -6.97963030726e-06 0)
(0.000455431800686 -8.75570706585e-06 0)
(0.000462611309779 -1.05464533014e-05 0)
(0.000471109767799 -1.23685372143e-05 0)
(0.000480952777131 -1.42368430214e-05 0)
(0.000492175011326 -1.61644895251e-05 0)
(0.00050481885336 -1.81627226014e-05 0)
(0.000518932893302 -2.02406763942e-05 0)
(0.000534570201504 -2.24049957822e-05 0)
(0.000551786290487 -2.46593126924e-05 0)
(0.000570636677694 -2.70035726276e-05 0)
(0.000591173965034 -2.94332159633e-05 0)
(0.000613444362552 -3.19382333341e-05 0)
(0.000637483606642 -3.45021363674e-05 0)
(0.000663312262146 -3.71009156295e-05 0)
(0.00069093045629 -3.97020951832e-05 0)
(0.000720312173094 -4.2264034833e-05 0)
(0.000751399338382 -4.47356683594e-05 0)
(0.000784096041029 -4.70568871442e-05 0)
(0.000818263350264 -4.91597656263e-05 0)
(0.000853715277368 -5.09707600168e-05 0)
(0.000890216459222 -5.24138785391e-05 0)
(0.000927482074378 -5.34146185773e-05 0)
(0.000965180307988 -5.39042161314e-05 0)
(0.00100293735374 -5.38235227039e-05 0)
(0.0010403445196 -5.31257337607e-05 0)
(0.00107696660767 -5.17773931776e-05 0)
(0.00111235055541 -4.97576672391e-05 0)
(0.00114603353493 -4.70566491516e-05 0)
(0.00117755030032 -4.3673941408e-05 0)
(0.00120644024585 -3.96185382436e-05 0)
(0.0012322549931 -3.49103536371e-05 0)
(0.00125456735505 -2.95834867545e-05 0)
(0.00127298261283 -2.36915383978e-05 0)
(0.00128715309302 -1.7314407481e-05 0)
(0.00129679604828 -1.05633711156e-05 0)
(0.00130171249166 -3.57989628486e-06 0)
(0.00130180267169 3.47359879977e-06 0)
(0.00129707418853 1.04285378197e-05 0)
(0.00128764081123 1.71264064856e-05 0)
(0.00127371223287 2.34328052639e-05 0)
(0.00125557701111 2.92456943423e-05 0)
(0.00123358272825 3.44956690994e-05 0)
(0.00120811764262 3.91399858146e-05 0)
(0.001179596208 4.31547814075e-05 0)
(0.00114844848775 4.65287746195e-05 0)
(0.00111511242618 4.92591543892e-05 0)
(0.0010800279316 5.13494169569e-05 0)
(0.00104363176904 5.28091626896e-05 0)
(0.00100635221879 5.36556433304e-05 0)
(0.000968602755724 5.39160818522e-05 0)
(0.00093077470032 5.36293956802e-05 0)
(0.000893229492639 5.28463308576e-05 0)
(0.000856291586975 5.16277806471e-05 0)
(0.00082024289579 5.00417035616e-05 0)
(0.000785319381652 4.81593479647e-05 0)
(0.000751709992999 4.60514779874e-05 0)
(0.000719557792677 4.37851172801e-05 0)
(0.00068896289291 4.14211011749e-05 0)
(0.000659986694587 3.90125249984e-05 0)
(0.000632656912521 3.66040273938e-05 0)
(0.000606972921655 3.42317598525e-05 0)
(0.00058291105073 3.19238585571e-05 0)
(0.000560429553972 2.97012383135e-05 0)
(0.000539473089876 2.75785542781e-05 0)
(0.00051997661903 2.55652131332e-05 0)
(0.00050186869635 2.36663513007e-05 0)
(0.000485074177287 2.18837294423e-05 0)
(0.000469516385341 2.0216516857e-05 0)
(0.000455118802986 1.86619572012e-05 0)
(0.000441806353509 1.72159182937e-05 0)
(0.000429506340356 1.58733357536e-05 0)
(0.000418149105852 1.4628563407e-05 0)
(0.000407668464267 1.34756446359e-05 0)
(0.000398001956703 1.24085183329e-05 0)
(0.000389090967511 1.14211721388e-05 0)
(0.000380880734905 1.05077540258e-05 0)
(0.000373320281874 9.66265184558e-06 0)
(0.000366362287895 8.88054890352e-06 0)
(0.000359962916935 8.15646242934e-06 0)
(0.0003540816131 7.48577069948e-06 0)
(0.000348680871563 6.86423383799e-06 0)
(0.000343725989282 6.28801274034e-06 0)
(0.000339184797187 5.75369033185e-06 0)
(0.000335027372973 5.25829934108e-06 0)
(0.000331225731246 4.79936105953e-06 0)
(0.000327753485593 4.37494011959e-06 0)
(0.000324585475152 3.98372119684e-06 0)
(0.000321697346788 3.62511472226e-06 0)
(0.000319065083547 3.29940004476e-06 0)
(0.00031666447198 3.00791576155e-06 0)
(0.000314470507573 2.7533071538e-06 0)
(0.000312456753883 2.53983761811e-06 0)
(0.000310594706424 2.37375857442e-06 0)
(0.000308853284949 2.26369537148e-06 0)
(0.000307198721258 2.22090466961e-06 0)
(0.000305595384029 2.25898183873e-06 0)
(0.000304008571215 2.39182776113e-06 0)
(0.000302411086735 2.62645042777e-06 0)
(0.000300795088547 2.93984991801e-06 0)
(0.000299181016608 3.21098435614e-06 0)
(0.00122194846296 0.000221325291776 0)
(0.00125351208761 0.000382580263394 0)
(0.0012514172333 0.000395734245986 0)
(0.00121410924585 0.000355536878555 0)
(0.00115661045953 0.000303381463561 0)
(0.00109131668472 0.000253785975773 0)
(0.00102569066905 0.000210908224117 0)
(0.00096368209696 0.000175160862908 0)
(0.000907106562966 0.00014574292973 0)
(0.000856576819453 0.000121585459959 0)
(0.000812067839037 0.000101681605135 0)
(0.000773242937627 8.51804859173e-05 0)
(0.000739635432563 7.13942504595e-05 0)
(0.000710746214781 5.97770379415e-05 0)
(0.000686093573899 4.98982272902e-05 0)
(0.000665236490361 4.14178149219e-05 0)
(0.000647783547627 3.40660633971e-05 0)
(0.000633394326486 2.76274535229e-05 0)
(0.00062177710115 2.19283046007e-05 0)
(0.000612684925474 1.68273141716e-05 0)
(0.00060591122107 1.22083476726e-05 0)
(0.000601285433256 7.9749359946e-06 0)
(0.000598669019301 4.04606257387e-06 0)
(0.000597951869573 3.52925074252e-07 0)
(0.00059904917464 -3.16356156824e-06 0)
(0.000601898704677 -6.55468240345e-06 0)
(0.000606458453703 -9.86541330447e-06 0)
(0.000612704589447 -1.31355583702e-05 0)
(0.000620629639058 -1.6400592944e-05 0)
(0.000630240843658 -1.96922590168e-05 0)
(0.000641558613197 -2.3038940315e-05 0)
(0.000654615010793 -2.64658314167e-05 0)
(0.000669452192428 -2.99949046723e-05 0)
(0.000686120723534 -3.36446711624e-05 0)
(0.000704677689035 -3.74297262576e-05 0)
(0.000725184508463 -4.13600683498e-05 0)
(0.000747704364192 -4.54401806828e-05 0)
(0.000772299150313 -4.9667873904e-05 0)
(0.000799025854853 -5.40329014587e-05 0)
(0.000827932302053 -5.8515385075e-05 0)
(0.000859052208382 -6.30841236854e-05 0)
(0.000892399550209 -6.76949087421e-05 0)
(0.000927962306884 -7.22890286616e-05 0)
(0.000965695732956 -7.67922107974e-05 0)
(0.0010055154267 -8.11143069043e-05 0)
(0.00104729059226 -8.51500593396e-05 0)
(0.00109083802358 -8.87812619079e-05 0)
(0.00113591744421 -9.18805233418e-05 0)
(0.00118222888022 -9.43166278613e-05 0)
(0.00122941268181 -9.59611631558e-05 0)
(0.00127705260182 -9.66956848052e-05 0)
(0.00132468196624 -9.64183071437e-05 0)
(0.00137179246315 -9.50484400425e-05 0)
(0.00141784455621 -9.25286835556e-05 0)
(0.00146227823997 -8.88238150403e-05 0)
(0.00150452307655 -8.39181197084e-05 0)
(0.00154400723438 -7.78131972193e-05 0)
(0.00158016615256 -7.05279561616e-05 0)
(0.00161245181501 -6.21011688022e-05 0)
(0.00164034342779 -5.25964896611e-05 0)
(0.00166336042886 -4.21106640098e-05 0)
(0.00168107933986 -3.07845746827e-05 0)
(0.00169315510838 -1.8811865721e-05 0)
(0.00169934419508 -6.43690913073e-06 0)
(0.00169952362597 6.06098281264e-06 0)
(0.00169370087003 1.83923348697e-05 0)
(0.00168201241691 3.02843435996e-05 0)
(0.00166471140333 4.15043288039e-05 0)
(0.00164214682296 5.18738107765e-05 0)
(0.00161473941094 6.12690595028e-05 0)
(0.00158295985088 6.96110328376e-05 0)
(0.00154731208697 7.6852710559e-05 0)
(0.00150832114636 8.29692761886e-05 0)
(0.001466523895 8.79517340156e-05 0)
(0.00142246167292 9.18033264199e-05 0)
(0.00137667386185 9.45390085445e-05 0)
(0.00132969115185 9.61878530388e-05 0)
(0.00128202754333 9.67967560705e-05 0)
(0.00123417104933 9.64331026408e-05 0)
(0.00118657398293 9.51847505438e-05 0)
(0.00113964410658 9.31570167301e-05 0)
(0.00109373776366 9.04673960629e-05 0)
(0.00104915566341 8.72391838841e-05 0)
(0.00100614149769 8.35951282919e-05 0)
(0.000964883170056 7.9651942507e-05 0)
(0.000925516161344 7.55161453663e-05 0)
(0.000888128437732 7.12813746074e-05 0)
(0.000852766298891 6.70270790546e-05 0)
(0.000819440630689 6.28183537906e-05 0)
(0.000788133133198 5.87066235714e-05 0)
(0.000758802212782 5.47308830635e-05 0)
(0.000731388337624 5.09192417171e-05 0)
(0.000705818748773 4.72905772218e-05 0)
(0.000682011489917 4.38561582895e-05 0)
(0.000659878769408 4.06211483541e-05 0)
(0.000639329700346 3.75859413942e-05 0)
(0.000620272482756 3.47473107193e-05 0)
(0.000602616099701 3.20993708554e-05 0)
(0.000586271599871 2.9634365109e-05 0)
(0.000571153035353 2.73432975106e-05 0)
(0.000557178116887 2.52164307627e-05 0)
(0.000544268641275 2.32436716605e-05 0)
(0.00053235073768 2.14148644077e-05 0)
(0.000521354971902 1.97200099771e-05 0)
(0.000511216340632 1.8149427587e-05 0)
(0.000501874181338 1.66938719393e-05 0)
(0.000493272017869 1.53446179942e-05 0)
(0.000485357357018 1.40935232082e-05 0)
(0.00047808144712 1.29330758977e-05 0)
(0.000471399006169 1.18564372942e-05 0)
(0.000465267923885 1.08574842553e-05 0)
(0.000459648939552 9.93085921588e-06 0)
(0.000454505295318 9.07203394291e-06 0)
(0.000449802363084 8.27739382624e-06 0)
(0.000445507242246 7.54434969604e-06 0)
(0.000441588325994 6.87148427535e-06 0)
(0.000438014836211 6.2587397122e-06 0)
(0.000434756332826 5.70765022933e-06 0)
(0.000431782215024 5.22161726974e-06 0)
(0.000429061252944 4.80620902396e-06 0)
(0.000426561225582 4.46943130429e-06 0)
(0.000424248802619 4.22184014328e-06 0)
(0.000422089906312 4.0761969134e-06 0)
(0.000420050929239 4.04598508738e-06 0)
(0.000418101326902 4.14122523942e-06 0)
(0.000416217938648 4.35791567203e-06 0)
(0.000414389465082 4.65285044509e-06 0)
(0.00041261052463 4.89099319549e-06 0)
(0.0012169780298 0.000182398810221 0)
(0.00124930703162 0.000357614151583 0)
(0.00126623233643 0.00040586994999 0)
(0.00125693365384 0.000392007885461 0)
(0.00122717851893 0.000354164418036 0)
(0.00118526692345 0.000310208431955 0)
(0.00113773778745 0.00026764096054 0)
(0.00108895609978 0.000229218427938 0)
(0.0010416007385 0.000195616302449 0)
(0.000997196381727 0.000166646230771 0)
(0.000956522230058 0.000141804010356 0)
(0.000919894556689 0.000120510700035 0)
(0.000887353080653 0.000102213062509 0)
(0.000858780610517 8.64199592598e-05 0)
(0.000833978314906 7.27102881579e-05 0)
(0.000812712166439 6.07290318245e-05 0)
(0.000794740942519 5.01790587925e-05 0)
(0.000779832567657 4.08120994294e-05 0)
(0.000767773171514 3.2420324875e-05 0)
(0.000758371656676 2.48290282319e-05 0)
(0.000751461547472 1.78904898477e-05 0)
(0.000746901234298 1.14789359047e-05 0)
(0.000744573308089 5.48644203802e-06 0)
(0.000744383411959 -1.8037158635e-07 0)
(0.000746258863702 -5.602987416e-06 0)
(0.000750147194475 -1.08530860928e-05 0)
(0.000756014688689 -1.59942249821e-05 0)
(0.00076384495656 -2.10831261806e-05 0)
(0.000773637534814 -2.61706329336e-05 0)
(0.000785406497672 -3.13023707388e-05 0)
(0.000799179043466 -3.651913269e-05 0)
(0.000814994009703 -4.18569962564e-05 0)
(0.000832900258663 -4.73471684277e-05 0)
(0.000852954865983 -5.30155483335e-05 0)
(0.00087522103592 -5.88819912617e-05 0)
(0.000899765659399 -6.49592568093e-05 0)
(0.000926656425585 -7.12516279204e-05 0)
(0.000955958395989 -7.77531994182e-05 0)
(0.000987729954463 -8.44458566492e-05 0)
(0.00102201806 -9.1297000588e-05 0)
(0.00105885275605 -9.82571274091e-05 0)
(0.00109824093497 -0.000105257439926 0)
(0.0011401594238 -0.000112207752673 0)
(0.00118454755199 -0.000118995044374 0)
(0.0012312994836 -0.000125483093646 0)
(0.00128025674021 -0.000131513679324 0)
(0.00133120149238 -0.000136909797625 0)
(0.00138385132925 -0.000141481203177 0)
(0.00143785628702 -0.00014503228417 0)
(0.00149279887735 -0.000147371824347 0)
(0.00154819765095 -0.000148323625419 0)
(0.00160351441785 -0.000147736388747 0)
(0.00165816462881 -0.000145490940776 0)
(0.00171152972077 -0.000141503227584 0)
(0.00176296975928 -0.000135722840974 0)
(0.00181183492197 -0.000128128932323 0)
(0.00185747544449 -0.000118726900415 0)
(0.00189925096473 -0.000107548528531 0)
(0.00193654056839 -9.46557076198e-05 0)
(0.00196875416452 -8.01470194723e-05 0)
(0.00199534595185 -6.41688037311e-05 0)
(0.00201583242261 -4.69317255481e-05 0)
(0.00202981700205 -2.87250044779e-05 0)
(0.00203701817364 -9.91400667792e-06 0)
(0.00203729287896 9.08392831571e-06 0)
(0.002030648368 2.78366031608e-05 0)
(0.00201724046621 4.59363422648e-05 0)
(0.00199735880264 6.30348883208e-05 0)
(0.00197140160422 7.88648848849e-05 0)
(0.00193984664638 9.32401893436e-05 0)
(0.00190322625789 0.000106039670725 0)
(0.00186210958567 0.000117188319047 0)
(0.00181709012149 0.000126643879679 0)
(0.0017687759446 0.000134388368411 0)
(0.0017177817844 0.000140422891241 0)
(0.00166472215153 0.000144766716044 0)
(0.00161020397175 0.000147460878541 0)
(0.00155481737464 0.000148573796801 0)
(0.00149912463227 0.000148205177848 0)
(0.00144364850836 0.000146485764834 0)
(0.00138886170153 0.00014357260422 0)
(0.00133517874518 0.000139641044915 0)
(0.00128295109636 0.000134875238103 0)
(0.00123246553708 0.00012945876805 0)
(0.00118394556287 0.000123566586283 0)
(0.00113755516856 0.000117358896612 0)
(0.00109340433507 0.000110977180358 0)
(0.0010515555354 0.000104542217253 0)
(0.00101203066798 9.81537600146e-05 0)
(0.000974817952181 9.18914407817e-05 0)
(0.000939878454414 8.58164937698e-05 0)
(0.000907152033408 7.99739349829e-05 0)
(0.000876562592347 7.43949185051e-05 0)
(0.000848022599674 6.90990690172e-05 0)
(0.000821436892343 6.40966610662e-05 0)
(0.000796705808483 5.93905718358e-05 0)
(0.00077372771517 5.4977975779e-05 0)
(0.000752401005283 5.08517776327e-05 0)
(0.000732625638532 4.7001798209e-05 0)
(0.000714304298277 4.34157371321e-05 0)
(0.000697343229631 4.00799412211e-05 0)
(0.000681652816935 3.69800079653e-05 0)
(0.000667147950791 3.41012523153e-05 0)
(0.000653748227248 3.14290624661e-05 0)
(0.000641378014468 2.89491674336e-05 0)
(0.000629966415798 2.66478361722e-05 0)
(0.000619447152344 2.4512025246e-05 0)
(0.000609758383163 2.2529489594e-05 0)
(0.000600842476855 2.06888689375e-05 0)
(0.000592645744679 1.89797607555e-05 0)
(0.000585118142211 1.73927895727e-05 0)
(0.000578212944147 1.59196814362e-05 0)
(0.000571886394925 1.45533518464e-05 0)
(0.00056609733677 1.32880148841e-05 0)
(0.000560806816522 1.21193205341e-05 0)
(0.000555977673765 1.10445257913e-05 0)
(0.000551574115816 1.00627020702e-05 0)
(0.000547561291114 9.17497513072e-06 0)
(0.00054390488278 8.38478091843e-06 0)
(0.00054057076058 7.69809550417e-06 0)
(0.000537524754405 7.12354783677e-06 0)
(0.000534732647217 6.67222705342e-06 0)
(0.000532160526983 6.3568038579e-06 0)
(0.000529775663508 6.18920023498e-06 0)
(0.00052754799479 6.17526706525e-06 0)
(0.000525451784492 6.30346260826e-06 0)
(0.00052346499336 6.52256226759e-06 0)
(0.000521559320457 6.70589166089e-06 0)
(0.00121291564838 0.000152505143395 0)
(0.00124204778627 0.000326046711925 0)
(0.00126658898999 0.000395970923751 0)
(0.0012735794218 0.000404215203266 0)
(0.00126325735627 0.000382034340738 0)
(0.0012402467976 0.000347260703715 0)
(0.00120936982454 0.000308994838775 0)
(0.00117444689222 0.000271569211403 0)
(0.00113820402876 0.000236863786252 0)
(0.00110247536444 0.00020553181138 0)
(0.00106843682275 0.000177631167131 0)
(0.00103680131787 0.000152946766147 0)
(0.00100796589782 0.000131153937634 0)
(0.000982117726753 0.000111899770859 0)
(0.000959308559302 9.48419853728e-05 0)
(0.000939506239036 7.96658491445e-05 0)
(0.000922629860056 6.60898900189e-05 0)
(0.00090857348597 5.38660624004e-05 0)
(0.000897221935989 4.27773526082e-05 0)
(0.000888461114676 3.26343802473e-05 0)
(0.000882184614663 2.32717893203e-05 0)
(0.000878297790569 1.45448142673e-05 0)
(0.00087672012898 6.32618993248e-06 0)
(0.000877386478619 -1.49653707003e-06 0)
(0.000880247516861 -9.02327898043e-06 0)
(0.000885269709711 -1.63432886493e-05 0)
(0.000892434939622 -2.35367209357e-05 0)
(0.000901739898026 -3.06758352062e-05 0)
(0.000913195295321 -3.78258828913e-05 0)
(0.000926824914188 -4.5045691031e-05 0)
(0.000942664505232 -5.23879431557e-05 0)
(0.000960760503612 -5.98991499481e-05 0)
(0.000981168528551 -6.7619293923e-05 0)
(0.00100395161332 -7.55811259782e-05 0)
(0.00102917810087 -8.38090877875e-05 0)
(0.00105691912969 -9.23178346275e-05 0)
(0.00108724562654 -0.000101110340087 0)
(0.00112022471828 -0.000110175580611 0)
(0.00115591547682 -0.000119485827092 0)
(0.00119436392148 -0.000128993617325 0)
(0.00123559722697 -0.000138628550244 0)
(0.00127961712643 -0.000148294133057 0)
(0.00132639256572 -0.000157865023049 0)
(0.00137585176024 -0.000167185127983 0)
(0.00142787393499 -0.000176067141485 0)
(0.00148228118805 -0.000184294157853 0)
(0.0015388310952 -0.000191623984526 0)
(0.00159721084189 -0.0001977965932 0)
(0.00165703378269 -0.000202544771356 0)
(0.00171783932703 -0.000205607434079 0)
(0.0017790968611 -0.000206744267952 0)
(0.00184021396609 -0.000205749544391 0)
(0.0019005484423 -0.000202462380301 0)
(0.00195942268894 -0.000196771017248 0)
(0.00201613821694 -0.000188610492822 0)
(0.00206998821257 -0.000177956301106 0)
(0.00212026760912 -0.000164819304378 0)
(0.00216628219121 -0.000149246077157 0)
(0.00220735867821 -0.000131324102879 0)
(0.00224285602831 -0.000111189433961 0)
(0.00227217806282 -8.90400927598e-05 0)
(0.00229479135595 -6.51601079454e-05 0)
(0.00231025342329 -3.9943208903e-05 0)
(0.00231824765679 -1.38911846787e-05 0)
(0.00231861250507 1.24215359521e-05 0)
(0.00231135552422 3.84004318447e-05 0)
(0.00229665116208 6.34846866603e-05 0)
(0.00227482316756 8.71960810901e-05 0)
(0.00224631360473 0.000109170308813 0)
(0.00221164724834 0.000129155918335 0)
(0.00217140321103 0.000146988196309 0)
(0.00212619746942 0.000162562032634 0)
(0.00207667144324 0.000175815484254 0)
(0.00202348251613 0.000186719703123 0)
(0.00196729625633 0.000195271823345 0)
(0.00190878004847 0.000201493486165 0)
(0.00184859591981 0.000205436295434 0)
(0.00178739051528 0.000207190278787 0)
(0.00172578228732 0.000206889582818 0)
(0.00166434777104 0.000204711935943 0)
(0.0016036092243 0.000200871740955 0)
(0.00154402530295 0.000195608757058 0)
(0.00148598554669 0.000189174917167 0)
(0.00142980869752 0.000181821496292 0)
(0.00137574437436 0.000173788164548 0)
(0.001323977365 0.000165294738947 0)
(0.00127463371786 0.000156535840974 0)
(0.00122778786558 0.000147678234003 0)
(0.00118347013762 0.000138860365075 0)
(0.00114167417322 0.000130193541482 0)
(0.00110236389804 0.000121764189128 0)
(0.0010654798586 0.000113636719365 0)
(0.0010309448116 0.000105856636594 0)
(0.000998668539384 9.84536245238e-05 0)
(0.000968551913538 9.14444411856e-05 0)
(0.000940490259344 8.48355256266e-05 0)