/*--------------------------------*- C++ -*----------------------------------*\
  =========                 |
  \\      /  F ield         | OpenFOAM: The Open Source CFD Toolbox
   \\    /   O peration     | Website:  https://openfoam.org
    \\  /    A nd           | Version:  7
     \\/     M anipulation  |
\*---------------------------------------------------------------------------*/
FoamFile
{
    version     2.0;
    format      ascii;
    class       volScalarField;
    location    "3420";
    object      Ci;
}
// * * * * * * * * * * * * * * * * * * * * * * * * * * * * * * * * * * * * * //

dimensions      [0 -3 0 0 1 0 0];

internalField   nonuniform List<scalar> 
8192
(
9.99999999688
10.0000000113
10.0000000393
10.0000000874
10.0000001607
10.0000002523
10.0000003556
10.0000004652
10.0000005786
10.0000006927
10.0000008061
10.0000009162
10.0000010221
10.0000011214
10.0000012139
10.0000012973
10.0000013717
10.0000014353
10.0000014886
10.00000153
10.0000015607
10.0000015792
10.0000015872
10.0000015834
10.00000157
10.0000015457
10.0000015129
10.0000014703
10.0000014206
10.0000013623
10.0000012981
10.0000012261
10.0000011491
10.0000010645
10.000000975
10.0000008775
10.0000007742
10.0000006618
10.0000005423
10.0000004118
10.0000002726
10.0000001209
9.99999995923
9.99999978417
9.99999959907
9.99999940116
9.99999919477
9.99999897787
9.99999875574
9.99999852692
9.99999829738
9.99999806598
9.9999978393
9.99999761663
9.99999740555
9.99999720651
9.99999702904
9.99999687579
9.99999675908
9.99999668395
9.99999666483
9.99999670732
9.9999968249
9.99999701998
9.99999730102
9.99999766377
9.99999810937
9.99999862645
9.99999920993
9.99999984388
10.0000005201
10.0000012215
10.0000019398
10.0000026591
10.000003373
10.0000040687
10.0000047426
10.0000053859
10.0000059985
10.0000065751
10.0000071188
10.0000076272
10.0000081054
10.0000085528
10.0000089754
10.0000093737
10.0000097536
10.0000101157
10.0000104654
10.0000108029
10.0000111326
10.0000114536
10.0000117691
10.0000120772
10.0000123802
10.0000126754
10.0000129642
10.0000132437
10.0000135147
10.0000137741
10.0000140225
10.0000142571
10.0000144783
10.0000146836
10.0000148736
10.0000150462
10.000015202
10.0000153395
10.0000154593
10.0000155603
10.0000156433
10.0000157076
10.0000157538
10.0000157816
10.0000157917
10.0000157838
10.0000157584
10.0000157152
10.000015654
10.0000155745
10.000015476
10.0000153582
10.0000152216
10.0000150685
10.0000149043
10.0000147382
10.0000145854
10.000014476
9.99999999698
10.0000000219
10.0000000543
10.0000001014
10.000000166
10.0000002453
10.0000003366
10.0000004364
10.0000005424
10.0000006517
10.0000007622
10.0000008715
10.000000978
10.0000010796
10.0000011754
10.0000012633
10.0000013431
10.000001413
10.0000014733
10.0000015225
10.0000015614
10.0000015889
10.000001606
10.0000016119
10.0000016082
10.000001594
10.0000015713
10.0000015393
10.0000014999
10.0000014524
10.0000013988
10.0000013379
10.0000012719
10.0000011989
10.000001121
10.0000010359
10.0000009454
10.0000008467
10.0000007413
10.0000006263
10.0000005032
10.0000003691
10.0000002257
10.0000000703
9.99999990545
9.99999972892
9.99999954398
9.99999934914
9.99999914843
9.99999894084
9.99999873103
9.99999851831
9.99999830787
9.9999980995
9.99999789934
9.99999770832
9.99999753435
9.99999738039
9.99999725678
9.99999716865
9.99999712808
9.99999714082
9.9999972182
9.99999736351
9.999997584
9.99999787769
9.9999982459
9.99999868085
9.9999991786
9.99999972732
10.0000003201
10.0000009434
10.0000015897
10.0000022458
10.000002905
10.000003556
10.0000041944
10.0000048115
10.0000054058
10.0000059719
10.0000065107
10.0000070197
10.0000075018
10.0000079563
10.0000083875
10.0000087958
10.0000091858
10.0000095583
10.0000099177
10.0000102648
10.0000106032
10.0000109324
10.0000112552
10.0000115703
10.0000118795
10.000012181
10.0000124757
10.0000127613
10.0000130383
10.0000133044
10.0000135596
10.0000138016
10.0000140307
10.0000142447
10.0000144437
10.0000146262
10.0000147923
10.0000149408
10.0000150722
10.0000151854
10.000015281
10.0000153584
10.0000154181
10.00001546
10.0000154844
10.0000154913
10.0000154809
10.0000154532
10.0000154079
10.0000153446
10.0000152629
10.0000151622
10.000015043
10.0000149074
10.0000147595
10.0000146062
10.0000144555
10.0000143302
9.99999999809
10.000000037
10.0000000779
10.0000001229
10.000000178
10.0000002431
10.0000003183
10.000000402
10.0000004936
10.0000005909
10.0000006927
10.0000007964
10.0000009009
10.0000010035
10.0000011035
10.0000011983
10.0000012878
10.0000013696
10.0000014443
10.0000015094
10.0000015663
10.0000016129
10.0000016508
10.0000016782
10.0000016973
10.0000017063
10.0000017077
10.0000016999
10.0000016856
10.000001663
10.0000016351
10.0000015998
10.0000015602
10.0000015138
10.0000014635
10.0000014065
10.0000013455
10.0000012772
10.0000012043
10.000001123
10.000001036
10.0000009395
10.0000008362
10.0000007225
10.0000006015
10.0000004699
10.0000003315
10.0000001832
10.0000000297
9.99999986808
9.99999970337
9.99999953293
9.99999936223
9.99999918884
9.99999901892
9.99999885077
9.99999869195
9.99999854221
9.99999841116
9.99999830038
9.99999822128
9.99999817643
9.99999817742
9.99999822576
9.99999833074
9.99999849066
9.99999871085
9.99999898563
9.9999993164
9.99999969433
10.000000118
10.000000577
10.0000010682
10.0000015806
10.0000021107
10.0000026479
10.0000031892
10.0000037255
10.0000042551
10.0000047708
10.0000052728
10.000005756
10.0000062223
10.0000066683
10.0000070974
10.0000075077
10.0000079032
10.0000082827
10.0000086505
10.0000090058
10.0000093524
10.0000096893
10.0000100196
10.0000103418
10.0000106582
10.0000109667
10.000011269
10.0000115627
10.0000118489
10.0000121251
10.0000123918
10.0000126469
10.0000128906
10.0000131209
10.0000133381
10.0000135404
10.0000137282
10.0000139002
10.0000140566
10.0000141964
10.0000143202
10.0000144273
10.0000145181
10.0000145922
10.0000146501
10.0000146916
10.000014717
10.0000147263
10.0000147193
10.0000146957
10.000014655
10.0000145967
10.0000145211
10.0000144292
10.0000143239
10.000014208
10.0000140891
10.0000139668
9.99999999791
10.0000000506
10.0000000968
10.000000146
10.0000002021
10.0000002645
10.0000003334
10.0000004086
10.0000004901
10.0000005771
10.000000669
10.0000007643
10.0000008622
10.0000009609
10.0000010593
10.0000011558
10.0000012494
10.0000013386
10.0000014229
10.0000015009
10.0000015725
10.0000016366
10.0000016936
10.0000017425
10.0000017841
10.0000018177
10.0000018444
10.0000018637
10.0000018767
10.0000018831
10.0000018842
10.0000018794
10.0000018702
10.0000018559
10.0000018378
10.0000018148
10.000001788
10.0000017562
10.0000017202
10.0000016785
10.0000016317
10.0000015781
10.0000015185
10.0000014511
10.0000013768
10.000001294
10.0000012041
10.0000011056
10.0000010003
10.0000008871
10.0000007681
10.0000006422
10.0000005119
10.0000003764
10.0000002386
10.0000000983
9.99999995949
9.99999982334
9.99999969525
9.99999957822
9.99999947916
9.99999940221
9.99999935465
9.99999934008
9.99999936422
9.99999942837
9.99999953541
9.99999968379
9.99999987377
10.0000001017
10.0000003661
10.0000006623
10.000000988
10.0000013378
10.0000017089
10.0000020957
10.0000024955
10.0000029028
10.0000033153
10.0000037284
10.0000041404
10.0000045476
10.0000049494
10.0000053431
10.0000057289
10.0000061054
10.0000064733
10.0000068321
10.0000071831
10.0000075259
10.000007862
10.0000081913
10.0000085148
10.0000088322
10.0000091443
10.0000094502
10.0000097506
10.0000100441
10.000010331
10.0000106099
10.0000108808
10.0000111424
10.0000113943
10.0000116353
10.0000118652
10.000012083
10.0000122883
10.0000124804
10.0000126592
10.0000128239
10.0000129747
10.0000131111
10.0000132332
10.0000133408
10.000013434
10.0000135128
10.0000135774
10.0000136276
10.0000136636
10.0000136849
10.0000136915
10.0000136827
10.0000136586
10.0000136198
10.0000135669
10.0000135007
10.0000134302
10.0000133357
10.0000000029
10.0000000687
10.0000001288
10.0000001846
10.000000243
10.000000305
10.0000003712
10.0000004417
10.0000005171
10.0000005968
10.0000006809
10.0000007684
10.0000008588
10.000000951
10.0000010443
10.0000011373
10.0000012294
10.0000013192
10.0000014063
10.0000014894
10.0000015683
10.0000016421
10.0000017107
10.0000017734
10.0000018305
10.0000018816
10.0000019271
10.0000019668
10.0000020014
10.0000020306
10.0000020554
10.0000020754
10.0000020917
10.0000021038
10.0000021127
10.0000021178
10.0000021197
10.0000021176
10.0000021121
10.000002102
10.0000020878
10.0000020679
10.0000020429
10.0000020111
10.000001973
10.0000019273
10.0000018746
10.0000018136
10.0000017454
10.000001669
10.0000015856
10.0000014944
10.000001397
10.0000012927
10.0000011834
10.0000010693
10.0000009531
10.0000008359
10.000000722
10.0000006141
10.0000005178
10.0000004369
10.0000003774
10.0000003423
10.0000003363
10.0000003601
10.0000004158
10.0000005017
10.0000006176
10.0000007605
10.0000009292
10.0000011203
10.0000013325
10.0000015624
10.0000018088
10.0000020685
10.0000023404
10.0000026216
10.0000029113
10.0000032068
10.0000035075
10.0000038112
10.0000041174
10.0000044242
10.0000047315
10.0000050378
10.0000053432
10.0000056467
10.0000059487
10.0000062484
10.0000065462
10.0000068416
10.0000071349
10.0000074254
10.0000077133
10.0000079977
10.0000082787
10.0000085554
10.0000088274
10.0000090939
10.0000093544
10.000009608
10.0000098542
10.0000100921
10.0000103213
10.000010541
10.0000107509
10.0000109504
10.000011139
10.0000113164
10.0000114824
10.0000116367
10.0000117792
10.0000119098
10.0000120283
10.0000121349
10.0000122295
10.000012312
10.0000123826
10.0000124411
10.0000124872
10.0000125206
10.000012541
10.0000125483
10.0000125438
10.0000125252
10.0000125041
10.000012454
10.0000000028
10.000000077
10.0000001422
10.0000002065
10.0000002727
10.0000003401
10.0000004092
10.0000004803
10.0000005541
10.0000006308
10.0000007104
10.0000007927
10.0000008774
10.0000009638
10.0000010514
10.0000011394
10.0000012272
10.0000013139
10.0000013992
10.0000014819
10.000001562
10.0000016386
10.0000017117
10.0000017805
10.0000018453
10.0000019057
10.0000019619
10.0000020136
10.0000020614
10.000002105
10.0000021451
10.0000021815
10.0000022148
10.0000022449
10.0000022721
10.0000022963
10.0000023177
10.0000023359
10.0000023509
10.000002362
10.0000023692
10.0000023714
10.0000023684
10.0000023592
10.0000023437
10.0000023207
10.0000022904
10.0000022519
10.0000022055
10.0000021507
10.0000020881
10.0000020172
10.0000019391
10.0000018537
10.0000017621
10.000001665
10.0000015643
10.0000014618
10.0000013609
10.0000012648
10.0000011783
10.0000011057
10.000001052
10.0000010208
10.0000010151
10.0000010362
10.000001084
10.000001157
10.0000012531
10.0000013692
10.0000015028
10.0000016509
10.0000018114
10.0000019817
10.0000021604
10.0000023455
10.0000025364
10.0000027318
10.0000029315
10.0000031349
10.0000033423
10.0000035531
10.0000037677
10.0000039856
10.0000042071
10.0000044317
10.0000046598
10.0000048908
10.0000051249
10.0000053616
10.0000056009
10.0000058422
10.0000060854
10.0000063297
10.0000065748
10.0000068199
10.0000070645
10.0000073078
10.0000075491
10.0000077875
10.0000080225
10.0000082532
10.0000084791
10.0000086992
10.0000089132
10.0000091204
10.0000093203
10.0000095124
10.0000096964
10.0000098718
10.0000100385
10.0000101962
10.0000103446
10.0000104837
10.0000106134
10.0000107335
10.0000108442
10.0000109454
10.000011037
10.000011119
10.0000111912
10.0000112533
10.0000113051
10.0000113456
10.0000113759
10.0000113936
10.0000114094
10.0000114044
10.0000000064
10.0000000873
10.0000001631
10.0000002332
10.0000003033
10.0000003736
10.0000004443
10.000000516
10.0000005891
10.000000664
10.0000007408
10.0000008194
10.0000008997
10.0000009813
10.0000010639
10.0000011469
10.0000012299
10.0000013124
10.0000013937
10.0000014735
10.0000015514
10.0000016269
10.0000016997
10.0000017696
10.0000018364
10.0000019
10.0000019603
10.0000020174
10.0000020713
10.0000021222
10.0000021701
10.0000022154
10.000002258
10.0000022982
10.0000023358
10.0000023712
10.000002404
10.0000024342
10.0000024612
10.000002485
10.0000025048
10.0000025201
10.0000025301
10.0000025343
10.0000025319
10.0000025222
10.0000025049
10.0000024793
10.0000024454
10.000002403
10.0000023521
10.0000022929
10.0000022258
10.0000021512
10.0000020698
10.0000019826
10.0000018912
10.0000017977
10.0000017052
10.0000016173
10.0000015385
10.0000014739
10.0000014281
10.0000014051
10.0000014077
10.0000014369
10.000001492
10.0000015708
10.0000016705
10.0000017874
10.0000019181
10.0000020592
10.0000022077
10.0000023609
10.0000025167
10.0000026733
10.0000028295
10.0000029845
10.0000031382
10.0000032905
10.000003442
10.0000035933
10.0000037451
10.0000038981
10.0000040531
10.0000042108
10.0000043718
10.0000045366
10.0000047057
10.0000048791
10.0000050571
10.0000052396
10.0000054262
10.0000056166
10.0000058103
10.0000060068
10.0000062052
10.0000064048
10.000006605
10.0000068048
10.0000070035
10.0000072005
10.0000073948
10.0000075859
10.0000077732
10.0000079562
10.0000081341
10.0000083068
10.0000084737
10.0000086346
10.000008789
10.0000089369
10.000009078
10.0000092121
10.0000093392
10.0000094592
10.0000095721
10.0000096777
10.0000097761
10.0000098672
10.0000099509
10.0000100268
10.0000100948
10.0000101539
10.0000102045
10.0000102451
10.0000102823
10.0000103104
10.0000000041
10.000000088
10.0000001646
10.0000002407
10.0000003177
10.000000394
10.0000004694
10.0000005442
10.0000006191
10.0000006944
10.0000007706
10.0000008477
10.0000009256
10.0000010043
10.0000010835
10.0000011628
10.000001242
10.0000013206
10.0000013984
10.0000014749
10.0000015499
10.0000016229
10.0000016939
10.0000017626
10.0000018289
10.0000018926
10.0000019537
10.0000020124
10.0000020685
10.0000021223
10.0000021736
10.0000022231
10.00000227
10.0000023155
10.0000023583
10.0000023999
10.0000024385
10.0000024757
10.0000025092
10.0000025405
10.0000025673
10.0000025904
10.0000026079
10.0000026201
10.0000026254
10.0000026236
10.0000026139
10.0000025959
10.0000025694
10.0000025341
10.0000024901
10.0000024374
10.0000023765
10.0000023076
10.0000022315
10.0000021491
10.0000020617
10.0000019716
10.0000018819
10.0000017965
10.0000017205
10.0000016594
10.0000016184
10.0000016022
10.0000016136
10.0000016534
10.0000017203
10.0000018117
10.0000019234
10.0000020514
10.0000021915
10.0000023398
10.000002493
10.000002648
10.0000028023
10.0000029536
10.0000031007
10.0000032423
10.0000033783
10.0000035087
10.000003634
10.0000037549
10.0000038724
10.0000039874
10.0000041013
10.000004215
10.0000043298
10.0000044465
10.0000045663
10.0000046895
10.000004817
10.0000049489
10.0000050855
10.0000052266
10.0000053719
10.0000055211
10.0000056736
10.0000058287
10.000005986
10.0000061446
10.0000063038
10.0000064629
10.0000066213
10.0000067784
10.0000069335
10.0000070861
10.0000072359
10.0000073822
10.0000075248
10.0000076634
10.0000077976
10.0000079273
10.0000080523
10.0000081723
10.0000082874
10.0000083974
10.0000085023
10.0000086019
10.0000086964
10.0000087854
10.0000088692
10.0000089472
10.0000090193
10.0000090845
10.0000091425
10.0000091934
10.0000092396
10.0000092852
10.0000000074
10.0000000961
10.0000001808
10.00000026
10.0000003389
10.000000417
10.0000004941
10.0000005703
10.0000006461
10.0000007219
10.0000007977
10.000000874
10.0000009505
10.0000010273
10.0000011042
10.000001181
10.0000012575
10.0000013333
10.0000014082
10.0000014821
10.0000015544
10.0000016253
10.0000016942
10.0000017614
10.0000018263
10.0000018894
10.00000195
10.0000020091
10.0000020654
10.0000021208
10.000002173
10.0000022253
10.0000022736
10.0000023231
10.0000023677
10.0000024146
10.0000024553
10.000002499
10.0000025351
10.0000025738
10.000002604
10.0000026349
10.000002657
10.000002677
10.0000026881
10.000002694
10.000002691
10.0000026806
10.0000026612
10.0000026333
10.0000025964
10.0000025508
10.0000024964
10.0000024338
10.0000023631
10.0000022853
10.0000022013
10.0000021135
10.0000020246
10.0000019392
10.0000018625
10.0000018008
10.00000176
10.0000017454
10.00000176
10.0000018048
10.000001878
10.0000019765
10.0000020955
10.0000022307
10.0000023774
10.0000025316
10.0000026897
10.0000028486
10.0000030057
10.0000031585
10.0000033053
10.0000034451
10.000003577
10.0000037012
10.0000038178
10.0000039273
10.0000040305
10.0000041284
10.0000042221
10.0000043129
10.0000044018
10.0000044903
10.0000045793
10.00000467
10.0000047632
10.0000048595
10.0000049593
10.0000050629
10.0000051703
10.0000052814
10.0000053957
10.0000055131
10.0000056329
10.0000057547
10.0000058779
10.0000060019
10.0000061262
10.0000062502
10.0000063735
10.0000064956
10.000006616
10.0000067346
10.0000068508
10.0000069645
10.0000070754
10.0000071834
10.0000072881
10.0000073896
10.0000074877
10.0000075823
10.0000076733
10.0000077608
10.0000078446
10.0000079246
10.0000080009
10.000008073
10.0000081408
10.0000082034
10.0000082602
10.0000083118
10.0000083594
10.0000084085
10.0000000045
10.0000000956
10.0000001801
10.0000002641
10.0000003487
10.000000432
10.0000005132
10.0000005927
10.0000006709
10.0000007483
10.0000008252
10.0000009018
10.0000009783
10.0000010545
10.0000011305
10.000001206
10.000001281
10.0000013553
10.0000014286
10.0000015008
10.0000015716
10.000001641
10.0000017087
10.000001775
10.0000018389
10.0000019019
10.0000019619
10.0000020218
10.0000020777
10.0000021353
10.000002187
10.0000022431
10.0000022904
10.000002346
10.0000023887
10.0000024444
10.0000024821
10.0000025373
10.0000025696
10.0000026219
10.0000026486
10.0000026939
10.0000027145
10.0000027478
10.0000027606
10.0000027777
10.0000027797
10.0000027784
10.000002766
10.000002746
10.0000027166
10.0000026781
10.0000026305
10.0000025737
10.0000025077
10.000002433
10.0000023505
10.0000022621
10.0000021707
10.0000020813
10.0000019999
10.0000019341
10.0000018907
10.0000018766
10.0000018947
10.0000019462
10.0000020282
10.0000021364
10.000002265
10.0000024087
10.0000025622
10.0000027215
10.0000028829
10.0000030434
10.0000032005
10.000003352
10.0000034963
10.0000036324
10.0000037599
10.0000038787
10.000003989
10.0000040912
10.0000041861
10.0000042743
10.0000043568
10.0000044346
10.000004509
10.0000045812
10.0000046522
10.0000047231
10.0000047949
10.0000048684
10.0000049441
10.0000050224
10.0000051035
10.0000051875
10.0000052741
10.0000053633
10.0000054546
10.0000055477
10.0000056423
10.0000057378
10.000005834
10.0000059302
10.0000060264
10.0000061219
10.0000062166
10.0000063102
10.0000064024
10.000006493
10.0000065818
10.0000066687
10.0000067536
10.0000068362
10.0000069167
10.0000069948
10.0000070705
10.0000071438
10.0000072146
10.0000072828
10.0000073484
10.000007411
10.0000074706
10.0000075259
10.0000075772
10.0000076234
10.0000076684
10.0000077121
10.0000000079
10.0000001043
10.0000001969
10.0000002836
10.0000003695
10.000000454
10.0000005367
10.0000006176
10.0000006972
10.0000007756
10.0000008533
10.0000009305
10.0000010071
10.0000010832
10.0000011589
10.000001234
10.0000013084
10.000001382
10.0000014544
10.000001526
10.000001596
10.0000016651
10.000001732
10.0000017985
10.0000018618
10.0000019259
10.000001985
10.0000020475
10.0000021018
10.0000021643
10.0000022127
10.0000022774
10.0000023184
10.0000023881
10.0000024195
10.0000024967
10.0000025168
10.0000026022
10.0000026103
10.0000027008
10.0000026992
10.0000027867
10.0000027803
10.0000028533
10.0000028472
10.0000028955
10.0000028905
10.00000291
10.0000029011
10.0000028946
10.0000028738
10.0000028457
10.0000028072
10.0000027588
10.0000027
10.0000026305
10.0000025509
10.0000024626
10.0000023687
10.0000022744
10.0000021867
10.0000021142
10.0000020656
10.0000020484
10.0000020668
10.0000021212
10.0000022081
10.0000023219
10.000002456
10.0000026039
10.0000027602
10.0000029205
10.0000030813
10.0000032398
10.0000033934
10.0000035404
10.0000036795
10.0000038099
10.0000039313
10.0000040438
10.0000041477
10.0000042435
10.0000043315
10.0000044125
10.0000044873
10.0000045568
10.0000046221
10.0000046842
10.0000047441
10.000004803
10.0000048617
10.000004921
10.0000049815
10.0000050436
10.0000051075
10.0000051735
10.0000052414
10.0000053111
10.0000053824
10.0000054552
10.0000055289
10.0000056035
10.0000056785
10.0000057538
10.0000058289
10.0000059036
10.0000059779
10.0000060513
10.0000061238
10.0000061953
10.0000062656
10.0000063346
10.0000064022
10.0000064683
10.000006533
10.000006596
10.0000066575
10.0000067173
10.0000067755
10.0000068317
10.0000068863
10.0000069384
10.0000069888
10.0000070351
10.0000070796
10.0000071178
10.0000071589
10.000007193
10.000000005
10.0000001042
10.0000001971
10.0000002888
10.0000003804
10.00000047
10.000000557
10.0000006414
10.0000007239
10.0000008047
10.0000008843
10.0000009628
10.0000010406
10.0000011176
10.0000011938
10.0000012694
10.000001344
10.0000014179
10.0000014904
10.0000015624
10.0000016324
10.0000017022
10.0000017689
10.0000018369
10.0000018996
10.0000019667
10.0000020241
10.0000020923
10.0000021424
10.0000022152
10.0000022543
10.0000023377
10.00000236
10.000002462
10.0000024595
10.0000025895
10.0000025535
10.0000027189
10.000002644
10.0000028443
10.0000027342
10.0000029547
10.0000028273
10.0000030374
10.0000029213
10.0000030848
10.0000030045
10.0000030994
10.0000030577
10.0000030886
10.0000030652
10.0000030532
10.0000030228
10.0000029829
10.0000029304
10.0000028645
10.0000027849
10.0000026928
10.0000025912
10.0000024863
10.0000023863
10.0000023026
10.0000022459
10.0000022263
10.0000022484
10.0000023127
10.0000024131
10.0000025419
10.0000026897
10.0000028493
10.0000030137
10.0000031785
10.00000334
10.000003496
10.0000036443
10.0000037832
10.0000039122
10.0000040309
10.00000414
10.00000424
10.0000043317
10.0000044155
10.0000044921
10.0000045621
10.0000046262
10.0000046852
10.0000047402
10.000004792
10.0000048418
10.0000048903
10.0000049385
10.000004987
10.0000050363
10.0000050868
10.0000051388
10.0000051923
10.0000052472
10.0000053036
10.0000053611
10.0000054197
10.0000054789
10.0000055387
10.0000055988
10.0000056588
10.0000057188
10.0000057783
10.0000058374
10.0000058959
10.0000059537
10.0000060106
10.0000060667
10.0000061218
10.000006176
10.0000062291
10.0000062812
10.0000063321
10.0000063821
10.0000064307
10.0000064783
10.0000065243
10.0000065695
10.0000066123
10.0000066545
10.0000066924
10.0000067304
10.0000067606
10.0000067977
10.0000068221
10.0000000086
10.0000001136
10.0000002148
10.0000003093
10.0000004024
10.0000004936
10.0000005824
10.0000006688
10.0000007532
10.0000008358
10.0000009171
10.0000009971
10.0000010761
10.0000011543
10.0000012315
10.000001308
10.0000013833
10.0000014581
10.0000015312
10.0000016043
10.0000016746
10.0000017462
10.0000018128
10.0000018839
10.0000019453
10.0000020179
10.0000020714
10.0000021499
10.0000021904
10.0000022828
10.0000023009
10.0000024208
10.0000024009
10.0000025694
10.0000024875
10.0000027335
10.000002559
10.0000029141
10.0000026173
10.0000031028
10.0000026732
10.0000032772
10.0000027468
10.0000034035
10.0000028589
10.0000034539
10.0000030098
10.0000034312
10.0000031631
10.0000033735
10.0000032628
10.0000033168
10.0000032771
10.000003255
10.0000032107
10.0000031503
10.0000030724
10.0000029771
10.0000028673
10.0000027494
10.0000026341
10.0000025351
10.0000024666
10.0000024406
10.0000024635
10.0000025344
10.0000026459
10.0000027871
10.0000029472
10.0000031167
10.0000032885
10.0000034572
10.0000036197
10.0000037733
10.0000039161
10.0000040468
10.0000041652
10.0000042719
10.0000043681
10.0000044548
10.0000045333
10.0000046042
10.0000046684
10.0000047264
10.0000047788
10.0000048266
10.0000048706
10.0000049118
10.0000049511
10.0000049895
10.0000050276
10.0000050662
10.0000051058
10.0000051465
10.0000051886
10.0000052322
10.0000052772
10.0000053233
10.0000053705
10.0000054185
10.0000054671
10.0000055161
10.0000055652
10.0000056142
10.0000056631
10.0000057116
10.0000057596
10.0000058071
10.0000058539
10.0000059001
10.0000059457
10.0000059904
10.0000060345
10.0000060777
10.0000061203
10.0000061619
10.0000062029
10.0000062427
10.0000062821
10.0000063199
10.0000063575
10.0000063926
10.0000064282
10.0000064588
10.0000064917
10.0000065148
10.0000065485
10.0000065643
10.0000000059
10.000000114
10.000000216
10.0000003156
10.0000004145
10.0000005109
10.0000006043
10.0000006948
10.0000007827
10.0000008685
10.0000009524
10.0000010349
10.0000011161
10.0000011962
10.0000012751
10.0000013533
10.00000143
10.0000015065
10.0000015807
10.0000016559
10.0000017269
10.0000018014
10.0000018678
10.0000019436
10.0000020028
10.0000020838
10.0000021307
10.0000022251
10.0000022493
10.0000023724
10.0000023547
10.0000025344
10.0000024398
10.0000027232
10.0000024941
10.0000029537
10.0000025054
10.0000032385
10.0000024665
10.0000035756
10.0000023895
10.0000039301
10.0000023233
10.0000042219
10.0000023531
10.0000043455
10.0000025568
10.0000042435
10.0000029193
10.0000039844
10.0000032939
10.0000037323
10.000003509
10.0000035805
10.0000035193
10.000003464
10.0000033837
10.0000032779
10.0000031501
10.0000030073
10.0000028653
10.0000027416
10.0000026537
10.0000026201
10.000002649
10.0000027388
10.000002876
10.0000030454
10.0000032318
10.0000034246
10.0000036144
10.0000037959
10.0000039654
10.0000041201
10.0000042585
10.0000043797
10.0000044846
10.0000045746
10.0000046525
10.0000047202
10.0000047799
10.0000048325
10.0000048792
10.0000049205
10.0000049573
10.0000049901
10.00000502
10.0000050478
10.0000050744
10.0000051007
10.0000051275
10.0000051552
10.0000051845
10.0000052153
10.000005248
10.0000052823
10.0000053182
10.0000053555
10.0000053939
10.0000054332
10.0000054732
10.0000055135
10.000005554
10.0000055945
10.0000056349
10.0000056749
10.0000057147
10.0000057539
10.0000057927
10.0000058308
10.0000058686
10.0000059056
10.0000059424
10.0000059782
10.0000060139
10.0000060484
10.000006083
10.0000061161
10.0000061496
10.0000061808
10.0000062132
10.0000062418
10.0000062729
10.0000062971
10.0000063264
10.0000063429
10.0000063739
10.0000063817
10.0000000095
10.0000001237
10.0000002338
10.0000003363
10.0000004367
10.0000005348
10.0000006303
10.0000007232
10.0000008137
10.000000902
10.0000009885
10.0000010734
10.0000011568
10.0000012391
10.0000013199
10.0000014002
10.0000014786
10.0000015573
10.0000016329
10.0000017107
10.0000017825
10.0000018607
10.0000019268
10.0000020084
10.0000020648
10.0000021562
10.0000021946
10.0000023084
10.000002312
10.0000024736
10.0000024089
10.0000026663
10.0000024704
10.0000029107
10.0000024706
10.0000032425
10.0000023722
10.0000037059
10.0000021325
10.0000043368
10.0000017308
10.0000051212
10.0000012213
10.0000059329
10.0000007926
10.0000064984
10.0000007524
10.0000064938
10.0000013344
10.0000058267
10.0000023893
10.0000048625
10.0000033607
10.0000041508
10.0000037965
10.0000038336
10.0000037444
10.0000036233
10.0000034706
10.0000032985
10.0000031294
10.0000029677
10.000002844
10.0000027945
10.0000028287
10.0000029311
10.0000030808
10.000003263
10.0000034678
10.0000036845
10.0000039013
10.0000041074
10.0000042955
10.0000044612
10.0000046029
10.0000047204
10.000004816
10.0000048929
10.000004955
10.0000050058
10.0000050481
10.0000050835
10.0000051132
10.0000051382
10.000005159
10.0000051767
10.0000051919
10.0000052058
10.0000052191
10.0000052328
10.0000052476
10.000005264
10.0000052824
10.000005303
10.0000053259
10.0000053508
10.0000053777
10.0000054063
10.0000054363
10.0000054674
10.0000054994
10.0000055319
10.0000055648
10.0000055978
10.0000056309
10.0000056638
10.0000056965
10.0000057288
10.0000057611
10.0000057926
10.0000058242
10.0000058549
10.000005886
10.0000059156
10.0000059462
10.0000059746
10.0000060047
10.0000060315
10.0000060612
10.0000060857
10.000006115
10.0000061359
10.0000061647
10.0000061797
10.0000062075
10.0000062125
10.000006242
10.0000062341
10.0000000071
10.0000001244
10.0000002355
10.0000003428
10.0000004488
10.000000552
10.0000006521
10.0000007493
10.0000008437
10.0000009357
10.0000010255
10.0000011137
10.0000012
10.0000012852
10.0000013686
10.0000014516
10.0000015322
10.0000016137
10.0000016912
10.0000017722
10.0000018454
10.0000019277
10.0000019943
10.0000020818
10.0000021366
10.0000022376
10.0000022697
10.000002401
10.0000023877
10.0000025836
10.0000024784
10.000002807
10.0000025172
10.00000311
10.0000024579
10.0000035589
10.0000022211
10.0000042562
10.0000016887
10.0000053347
10.0000007254
10.0000069068
9.99999926753
10.0000089265
9.99999750806
10.0000109748
9.99999609901
10.0000121517
9.99999605504
10.0000114904
9.99999797703
10.0000089972
10.0000010353
10.0000061578
10.0000033754
10.0000044912
10.000004088
10.0000039475
10.0000037639
10.0000035789
10.000003353
10.0000030561
10.0000028739
10.000002873
10.0000029276
10.0000029235
10.0000028801
10.0000029031
10.0000030703
10.0000033775
10.0000037599
10.0000041431
10.0000044782
10.0000047461
10.0000049477
10.000005093
10.0000051943
10.0000052631
10.0000053095
10.0000053408
10.0000053625
10.0000053774
10.0000053874
10.0000053935
10.0000053965
10.0000053969
10.0000053957
10.0000053936
10.0000053916
10.0000053905
10.0000053912
10.0000053941
10.0000053998
10.0000054085
10.0000054201
10.0000054344
10.0000054515
10.0000054707
10.0000054919
10.0000055147
10.0000055388
10.0000055637
10.0000055895
10.0000056154
10.0000056419
10.0000056682
10.000005695
10.000005721
10.0000057479
10.0000057732
10.0000058002
10.0000058247
10.000005852
10.000005875
10.0000059028
10.0000059236
10.0000059522
10.0000059693
10.000005999
10.0000060103
10.000006041
10.0000060431
10.0000060745
10.0000060619
10.0000060929
10.0000060573
10.0000060884
10.0000060206
10.0000000105
10.0000001339
10.0000002527
10.0000003626
10.0000004699
10.0000005748
10.0000006769
10.0000007766
10.0000008738
10.0000009688
10.0000010616
10.0000011528
10.0000012419
10.0000013301
10.0000014162
10.0000015021
10.0000015852
10.0000016696
10.0000017494
10.0000018335
10.0000019089
10.0000019947
10.0000020633
10.000002155
10.0000022113
10.0000023178
10.0000023503
10.0000024896
10.0000024738
10.0000026836
10.0000025678
10.0000029253
10.0000026016
10.0000032645
10.0000025123
10.0000037953
10.0000021775
10.0000046886
10.0000013775
10.000006227
9.99999976792
10.0000088057
9.99999692841
10.0000127946
9.99999263165
10.0000180989
9.99998746504
10.000023412
9.9999835361
10.0000258718
9.99998401763
10.0000227196
9.99999017813
10.0000149553
9.99999842479
10.0000077012
10.0000035346
10.0000043563
10.0000042323
10.0000040307
10.0000033186
10.0000026863