/*--------------------------------*- C++ -*----------------------------------*\
  =========                 |
  \\      /  F ield         | OpenFOAM: The Open Source CFD Toolbox
   \\    /   O peration     | Website:  https://openfoam.org
    \\  /    A nd           | Version:  7
     \\/     M anipulation  |
\*---------------------------------------------------------------------------*/
FoamFile
{
    version     2.0;
    format      ascii;
    class       volScalarField;
    location    "3420";
    object      p;
}
// * * * * * * * * * * * * * * * * * * * * * * * * * * * * * * * * * * * * * //

dimensions      [0 2 -2 0 0 0 0];

internalField   nonuniform List<scalar> 
8192
(
0.000543554522774
0.000371996771729
0.00028636023564
0.000242218648679
0.000217163383034
0.000201896612102
0.000192001803504
0.000185235062195
0.000180389712385
0.000176781692533
0.000174003478957
0.000171800932293
0.000170008934519
0.000168516294337
0.000167245803417
0.000166142443736
0.000165166148858
0.000164287204206
0.000163483230429
0.000162737147996
0.000162035768227
0.000161368795594
0.000160728106461
0.000160107218028
0.000159500890307
0.000158904822946
0.000158315420124
0.00015772960503
0.000157144670125
0.000156558153425
0.000155967732719
0.000155371132398
0.000154766038107
0.000154150015278
0.000153520427788
0.000152874354257
0.000152208499097
0.00015151909651
0.000150801805272
0.000150051593448
0.0001492626122
0.000148428059743
0.000147540037405
0.000146589402796
0.000145565627406
0.000144456670819
0.000143248887761
0.000141926990846
0.00014047409683
0.000138871890446
0.000137100941999
0.000135141214944
0.000132972791259
0.000130576827516
0.000127936727767
0.000125039485388
0.000121877103736
0.000118447965243
0.000114757984976
0.000110821372892
0.000106660845299
0.000102307182244
9.77981173786e-05
9.31766596605e-05
8.84890474886e-05
8.3782596122e-05
7.91036925895e-05
7.44961252948e-05
6.99998263569e-05
6.56500164925e-05
6.14766822321e-05
5.75042953941e-05
5.37516984748e-05
5.02321135551e-05
4.69532645696e-05
4.39176258976e-05
4.11228138727e-05
3.8562127724e-05
3.62252242848e-05
3.4098889484e-05
3.21678525856e-05
3.04155849762e-05
2.88250302246e-05
2.73792270627e-05
2.6061803478e-05
2.48573377694e-05
2.37515947613e-05
2.2731654747e-05
2.17859559376e-05
2.09042724599e-05
2.00776473017e-05
1.92982972266e-05
1.85595024375e-05
1.78554910796e-05
1.7181325069e-05
1.65327919902e-05
1.59063053592e-05
1.52988148118e-05
1.47077262751e-05
1.41308321205e-05
1.35662504009e-05
1.30123725661e-05
1.24678184961e-05
1.1931398123e-05
1.14020785346e-05
1.08789559073e-05
1.03612313342e-05
9.84819003999e-06
9.33918325286e-06
8.83361239108e-06
8.33091506042e-06
7.83055273005e-06
7.33199988865e-06
6.83473490899e-06
6.33823299191e-06
5.84196223374e-06
5.34538453375e-06
4.84796454574e-06
4.34919209542e-06
3.84862769139e-06
3.34598820147e-06
2.84130413259e-06
2.3352083134e-06
1.82947519733e-06
1.32806417902e-06
8.3925392456e-07
3.80886992617e-07
4.18355855741e-08
0.000394648902857
0.000331126866179
0.000281420481658
0.000248746409367
0.000226800250268
0.000211593851587
0.000200749923209
0.000192804446871
0.000186832654828
0.000182236383907
0.000178619621775
0.000175714132655
0.000173334185108
0.000171348478037
0.000169662390664
0.00016820653283
0.000166929208079
0.000165791351904
0.000164763065314
0.00016382119628
0.000162947622113
0.000162128009241
0.000161350903487
0.000160607052907
0.000159888896414
0.000159190172262
0.000158505613844
0.000157830709789
0.000157161511358
0.000156494474894
0.000155826329328
0.000155153962121
0.000154474318151
0.000153784306642
0.000153080712238
0.000152360107417
0.000151618763492
0.000150852558386
0.000150056879397
0.000149226520288
0.000148355572325
0.000147437310479
0.000146464076953
0.000145427166669
0.000144316721367
0.000143121642735
0.00014182953822
0.00014042671813
0.000138898266351
0.000137228211375
0.000135399825615
0.000133396080264
0.000131200275874
0.000128796856379
0.000126172392873
0.000123316696212
0.000120223984209
0.00011689399739
0.000113332931072
0.000109554042131
0.000105577801822
0.000101431510365
9.71483613582e-05
9.27660358495e-05
8.83249900316e-05
8.38666505595e-05
7.94317275482e-05
7.50588005095e-05
7.07832389604e-05
6.66364499862e-05
6.26453990386e-05
5.88323327872e-05
5.52146452175e-05
5.18048548333e-05
4.86106860306e-05
4.5635264953e-05
4.28774423089e-05
4.03322465792e-05
3.79914529612e-05
3.58442359032e-05
3.38778597105e-05
3.20783585404e-05
3.04311616604e-05
2.89216320201e-05
2.75354998455e-05
2.62591870867e-05
2.50800286707e-05
2.39864039821e-05
2.29677948686e-05
2.20147875593e-05
2.11190341299e-05
2.02731873321e-05
1.94708194923e-05
1.87063340236e-05
1.79748753637e-05
1.72722416466e-05
1.65948025216e-05
1.59394237768e-05
1.53033992521e-05
1.46843903073e-05
1.40803724163e-05
1.3489588548e-05
1.2910508576e-05
1.23417941936e-05
1.1782268544e-05
1.12308900576e-05
1.06867298037e-05
1.01489519489e-05
9.61679678626e-06
9.08956607176e-06
8.56661033195e-06
8.0473180885e-06
7.53110695675e-06
7.01741692516e-06
6.50570630809e-06
5.99545142488e-06
5.4861516413e-06
4.9773425396e-06
4.46862153727e-06
3.9596929162e-06
3.45044330454e-06
2.94106544877e-06
2.43225931759e-06
1.92555917632e-06
1.42386982939e-06
9.32384093923e-07
4.59794892112e-07
7.66027939897e-08
0.000311722584102
0.000289043328218
0.000263034032219
0.000241777264375
0.000225637448141
0.000213307037544
0.000203767573662
0.000196292054942
0.000190358832968
0.000185588903806
0.000181704058499
0.00017849827757
0.000175817716235
0.000173546512411
0.000171596649174
0.000169900674277
0.000168406442602
0.000167073295275
0.000165869262288
0.000164768997742
0.000163752242323
0.000162802667999
0.000161907001601
0.000161054353742
0.000160235699769
0.000159443474356
0.000158671251264
0.0001579134875
0.00015716531596
0.000156422375093
0.000155680665285
0.000154936426045
0.000154186028538
0.0001534258783
0.000152652324418
0.000151861572556
0.000151049599139
0.000150212065096
0.000149344227468
0.000148440848408
0.000147496101148
0.000146503474144
0.000145455675063
0.000144344538659
0.000143160943838
0.00014189474857
0.000140534753624
0.000139068710413
0.000137483391077
0.000135764743024
0.000133898151256
0.000131868832069
0.00012966237611
0.000127265449276
0.000124666641872
0.00012185743355
0.000118833211988
0.000115594254747
0.000112146558308
0.000108502387207
0.000104680423447
0.000100705433135
9.6607431704e-05
9.24204165685e-05
8.81808194303e-05
8.39258813111e-05
7.96921499099e-05
7.55142434882e-05
7.14239251493e-05
6.74494684984e-05
6.36152582178e-05
5.99415548916e-05
5.64443708909e-05
5.31354324778e-05
5.00222274909e-05
4.71081538181e-05
4.43927842072e-05
4.1872253077e-05
3.95397522917e-05
3.73861058178e-05
3.54003803359e-05
3.35704867364e-05
3.18837323086e-05
3.03272956096e-05
2.88886086106e-05
2.75556436244e-05
2.63171109822e-05
2.51625797572e-05
2.40825356782e-05
2.30683911843e-05
2.21124606652e-05
2.12079124893e-05
2.03487066016e-05
1.95295248747e-05
1.87456989907e-05
1.79931395951e-05
1.7268268765e-05
1.65679573803e-05
1.58894678791e-05
1.5230402827e-05
1.45886590175e-05
1.39623869979e-05
1.33499554405e-05
1.2749920059e-05
1.2160996439e-05
1.15820364575e-05
1.10120077279e-05
1.04499758031e-05
9.89508869421e-06
9.34656354435e-06
8.80367517994e-06
8.26574653672e-06
7.73214091925e-06
7.20225635327e-06
6.67552237467e-06
6.15139999761e-06
5.62938590709e-06
5.10902256059e-06
4.58991659823e-06
4.07176912817e-06
3.55442300554e-06
3.03793461103e-06
2.52268120988e-06
2.00952023453e-06
1.50002248643e-06
9.96753634799e-07
5.03074118975e-07
8.61312026626e-08
0.000267202779822
0.000258795147909
0.000244580440847
0.000230765457562
0.000219315362089
0.000210020424148
0.000202428662535
0.000196172319364
0.000190973531533
0.000186619850715
0.000182945522392
0.000179819417992
0.000177136990443
0.000174814521889
0.000172784776001
0.000170993609176
0.000169397294034
0.000167960396846
0.000166654093355
0.000165454832794
0.000164343277743
0.000163303461899
0.000162322119361
0.00016138814879
0.000160492183387
0.000159626243996
0.000158783457344
0.000157957825416
0.000157144034744
0.000156337297326
0.000155533214305
0.000154727658688
0.000153916672836
0.000153096375497
0.000152262875712
0.000151412191221
0.000150540169134
0.000149642407324
0.000148714175132
0.000147750332753
0.000146745248917
0.000145692717545
0.000144585874688
0.000143417118647
0.000142178037543
0.000140859351059
0.000139450875474
0.000137941524618
0.000136319362636
0.000134571728304
0.000132685453025
0.000130647195808
0.000128443915388
0.000126063491933
0.000123495495509
0.000120732076664
0.000117768925987
0.000114606219364
0.000111249437815
0.000107709934017
0.000104005119073
0.000100158173619
9.61972519021e-05
9.21542418834e-05
8.80632418163e-05
8.39589731526e-05
7.98753469464e-05
7.58443332177e-05
7.1895157627e-05
6.80537840475e-05
6.43426115312e-05
6.07803017211e-05
5.73816819092e-05
5.41577035217e-05
5.11154643315e-05
4.82583187003e-05
4.55860996705e-05
4.3095463376e-05
4.07803447638e-05
3.86324934375e-05
3.66420450635e-05
3.47980817325e-05
3.30891415652e-05
3.15036510907e-05
3.00302678312e-05
2.86581329503e-05
2.737704199e-05
2.61775466213e-05
2.50510015859e-05
2.39895707084e-05
2.2986203883e-05
2.20345950128e-05
2.11291284576e-05
2.02648198101e-05
1.94372549704e-05
1.86425303978e-05
1.78771962271e-05
1.71382033986e-05
1.64228552404e-05
1.57287637579e-05
1.50538104715e-05
1.43961116526e-05
1.37539875678e-05
1.31259354374e-05
1.2510605672e-05
1.19067810818e-05
1.13133586617e-05
1.07293336982e-05
1.01537858835e-05
9.58586726337e-06
9.0247918158e-06
8.46982659779e-06
7.92028440197e-06
7.37551802265e-06
6.83491628372e-06
6.29790218429e-06
5.76393366068e-06
5.23250777134e-06
4.70316944332e-06
4.17552650564e-06
3.64927356618e-06
3.12422867453e-06
2.60038857841e-06
2.07800928527e-06
1.55770605337e-06
1.04047224251e-06
5.27064207453e-07
8.7651788587e-08
0.000239622205483
0.000237623847691
0.000229795150553
0.000220575563436
0.000212270650356
0.000205218233984
0.000199261627533
0.000194195666851
0.000189852062839
0.000186101122206
0.00018284152694
0.000179991967952
0.000177485768058
0.000175267517233
0.000173290847923
0.000171516834665
0.000169912752377
0.000168451063977
0.000167108573771
0.000165865712618
0.000164705933353
0.00016361520036
0.000162581559638
0.00016159477741
0.000160646036554
0.000159727681521
0.000158833003475
0.00015795605867
0.000157091513911
0.000156234514763
0.000155380569311
0.000154525446842
0.000153665088657
0.000152795525909
0.000151912803187
0.000151012905943
0.000150091689989
0.000149144811729
0.000148167657904
0.000147155274144
0.000146102291824
0.000145002853458
0.000143850537384
0.000142638283727
0.000141358324754
0.000140002124889
0.000138560337854
0.000137022791811
0.000135378516904
0.00013361583399
0.000131722527012
0.000129686124205
0.000127494312466
0.000125135503553
0.000122599557163
0.00011987864432
0.000116968204694
0.000113867917731
0.000110582574389
0.000107122712118
0.000103504869102
9.97513384689e-05
9.5889370585e-05
9.19498823642e-05
8.79658560983e-05
8.39706880195e-05
7.99967439703e-05
7.60742894184e-05
7.22307929705e-05
6.84905287377e-05
6.48743807596e-05
6.13997436674e-05
5.80804592726e-05
5.49267739542e-05
5.19453365419e-05
4.91392741702e-05
4.65083813974e-05
4.40494398639e-05
4.17566586913e-05
3.96222007952e-05
3.76367449157e-05
3.57900318154e-05
3.40713527564e-05
3.24699544401e-05
3.09753506443e-05
2.95775438289e-05
2.82671678603e-05
2.70355668093e-05
2.58748250123e-05
2.47777622356e-05
2.37379052708e-05
2.27494449206e-05
2.18071849056e-05
2.09064874483e-05
2.00432186664e-05
1.92136959035e-05
1.84146381886e-05
1.76431205516e-05
1.68965324186e-05
1.61725401495e-05
1.54690535186e-05
1.47841959314e-05
1.41162780303e-05
1.34637744053e-05
1.28253030469e-05
1.21996072653e-05
1.15855397557e-05
1.09820485765e-05
1.03881647865e-05
9.80299156439e-06
9.22569463111e-06
8.655493868e-06
8.09165603395e-06
7.53348856354e-06
6.98033446107e-06
6.43156840874e-06
5.88659429809e-06
5.34484458067e-06
4.80578208392e-06
4.26890537356e-06
3.73375936654e-06
3.19995365715e-06
2.66719101842e-06
2.13530369625e-06
1.60426896987e-06
1.07407246957e-06
5.44015562601e-07
8.78871340081e-08
0.000221312189869
0.000222168412805
0.000218090712785
0.000211926619113
0.000205807473187
0.000200354826328
0.000195618980541
0.000191504805033
0.000187905480149
0.000184732317885
0.00018191578302
0.000179400941423
0.000177143264998
0.000175105734988
0.000173256993636
0.000171570163369
0.000170022053855
0.000168592587687
0.000167264351497
0.000166022224112
0.000164853057323
0.000163745396966
0.000162689237589
0.000161675806509
0.000160697373983
0.000159747086639
0.00015881882142
0.000157907057452
0.000157006763386
0.000156113298374
0.00015522232161
0.000154329711871
0.000153431495805
0.000152523780088
0.000151602687439
0.000150664295077
0.000149704574291
0.000148719330042
0.000147704139517
0.000146654288889
0.000145564707632
0.000144429900224
0.000143243875451
0.000142000074445
0.000140691299572
0.000139309648073
0.000137846456585
0.000136292265924
0.000134636819543
0.000132869114118
0.000130977525879
0.000128950041006
0.000126774620053
0.000124439722994
0.000121935009386
0.000119252206052
0.000116386102179
0.000113335592736
0.000110104650761
0.000106703075344
0.00010314684467
9.94579196961e-05
9.56634150624e-05
9.17941895146e-05
8.78830738021e-05
8.3963063137e-05
8.00657979306e-05
7.62205287504e-05
7.24535291982e-05
6.87878331891e-05
6.52431630237e-05
6.18359128146e-05
5.85791200493e-05
5.5482417482e-05
5.25520006499e-05
4.97906662969e-05
4.71979723324e-05
4.4770545181e-05
4.25025249817e-05
4.03861069175e-05
3.84121186834e-05
3.65705740735e-05
3.4851156601e-05
3.32436075825e-05
3.17380123782e-05
3.03249926477e-05
2.89958200681e-05
2.77424695028e-05
2.65576285254e-05
2.54346776244e-05
2.43676521521e-05
2.33511942035e-05
2.2380500057e-05
2.14512669803e-05
2.0559641732e-05
1.97021721762e-05
1.88757626881e-05
1.80776336555e-05
1.73052850334e-05
1.65564638085e-05
1.58291350674e-05
1.5121456384e-05
1.44317551623e-05
1.37585086377e-05
1.31003261992e-05
1.24559337689e-05
1.18241599555e-05
1.12039237649e-05
1.05942236403e-05
9.99412766244e-06
9.40276473514e-06
8.8193166319e-06
8.24301077913e-06
7.67311370643e-06
7.10892510703e-06
6.54977253039e-06
5.99500678977e-06
5.44399831776e-06
4.89613487828e-06
4.35082131631e-06
3.80748222865e-06
3.26556817812e-06
2.7245637153e-06
2.18398610582e-06
1.6433332817e-06
1.10186034478e-06
5.57941176726e-07
8.83808608492e-08
0.000208465081493
0.000210542204068
0.00020870397847
0.000204653700363
0.000200140226192
0.000195879620739
0.000192060764198
0.000188677743751
0.000185672985065
0.000182985912036
0.000180565405316
0.00017837060584
0.00017636886158
0.000174533557171
0.000172842467125
0.000171276633441
0.000169819625981
0.000168457050697
0.000167176209254
0.000165965848834
0.000164815965783
0.000163717642619
0.000162662907117
0.000161644607437
0.000160656299971
0.000159692147993
0.000158746829785
0.000157815455228
0.000156893490245
0.000155976687702
0.000155061022084
0.000154142629865
0.000153217755489
0.000152282698465
0.000151333762338
0.000150367204558
0.000149379186277
0.000148365721155
0.000147322622263
0.000146245446241
0.00014512943394
0.000143969446984
0.000142759899979
0.000141494688665
0.00014016711518
0.000138769813064
0.000137294676764
0.000135732803652
0.000134074461007
0.000132309096264
0.00013042541573
0.00012841156391
0.000126255440403
0.000123945190682
0.000121469896886
0.000118820471796
0.000115990722981
0.000112978508228
0.000109786853931
0.000106424862488
0.000102908202629
9.92589787945e-05
9.55048479067e-05
9.1677421346e-05
8.78102202352e-05
8.39366136552e-05
8.0088164889e-05
7.62936214186e-05
7.25784591805e-05
6.89647856948e-05
6.54714165204e-05
6.21139527705e-05
5.89047859905e-05
5.58530342883e-05
5.2964466472e-05
5.02414933764e-05
4.76832972231e-05
4.5286135735e-05
4.3043810409e-05
4.09482461272e-05
3.8990107177e-05
3.71593771923e-05
3.54458509078e-05
3.38395125448e-05
3.23307992925e-05
3.09107638982e-05
2.95711574615e-05
2.83044543402e-05
2.71038383159e-05
2.59631650546e-05
2.48769117723e-05
2.38401215247e-05
2.28483468741e-05
2.18975957736e-05
2.09842812138e-05
2.01051753345e-05
1.92573681824e-05
1.84382309857e-05
1.76453836493e-05
1.68766660928e-05
1.61301130287e-05
1.54039317797e-05
1.4696482761e-05
1.40062622789e-05
1.33318873349e-05
1.26720821538e-05
1.2025666188e-05
1.13915433773e-05
1.07686924673e-05
1.0156158213e-05
9.55304331268e-06
8.95850093326e-06
8.37172771e-06
7.79195711866e-06
7.21845314965e-06
6.65050424746e-06
6.0874175351e-06
5.52851341061e-06
4.97312067338e-06
4.42057232867e-06
3.87020190067e-06
3.32133878714e-06
2.77329716226e-06
2.22534191501e-06
1.67658863361e-06
1.12574581549e-06
5.70574973515e-07
8.98974365079e-08
0.0001990333402
0.000201569400371
0.000201076375779
0.000198507328604
0.000195209648238
0.000191876994439
0.000188774003107
0.000185962479814
0.000183427774696
0.000181134108433
0.000179044970552
0.000177129017971
0.000175360702319
0.00017371933964
0.000172187965423
0.000170752378903
0.000169400440356
0.000168121580846
0.000166906465411
0.000165746759291
0.000164634960611
0.000163564275054
0.000162528516995
0.000161522027535
0.000160539603709
0.000159576435499
0.000158628048589
0.000157690251665
0.000156759088189
0.000155830789959
0.000154901732245
0.000153968391861
0.00015302730832
0.000152075044303
0.000151108146432
0.000150123105652
0.000149116316461
0.000148084034215
0.000147022329631
0.000145927039598
0.000144793713339
0.000143617553028
0.000142393348035
0.000141115402361
0.00013977745538
0.000138372597252
0.000136893182268
0.000135330746625
0.000133675941883
0.000131918502156
0.000130047271765
0.000128050329921
0.000125915257531
0.000123629594445
0.00012118152768
0.00011856082755
0.000115760007568
0.000112775629655
0.000109609615889
0.000106270368399
0.000102773447324
9.91415358129e-05
9.54034865283e-05
9.15924564391e-05
8.77434649038e-05
8.38909588826e-05
8.00669630856e-05
7.63001018964e-05
7.26153205216e-05
6.90340038249e-05
6.5574235916e-05
6.22509851741e-05
5.90761374514e-05
5.60583998091e-05
5.32031608484e-05
5.05124184946e-05
4.7984872671e-05
4.56162335344e-05
4.33997317575e-05
4.13267612364e-05
3.93875575426e-05
3.75718224011e-05
3.5869234296e-05
3.42698213616e-05
3.27642018257e-05
3.13437143918e-05
3.00004667951e-05
2.87273293094e-05
2.75178948714e-05
2.63664216706e-05
2.52677687892e-05
2.42173314816e-05
2.32109797984e-05
2.22450024142e-05
2.13160563313e-05
2.042112248e-05
1.95574668518e-05
1.87226066557e-05
1.79142809079e-05
1.71304248982e-05
1.63691479864e-05
1.56287142642e-05
1.49075256455e-05
1.42041070286e-05
1.35170931987e-05
1.28452172049e-05
1.21872999609e-05
1.15422408715e-05
1.0909009292e-05
1.02866366664e-05
9.67420919339e-06
9.07086089493e-06
8.47576696467e-06
7.88813729747e-06
7.30721010223e-06
6.73224552772e-06
6.1625192262e-06
5.59731577952e-06
5.03592181265e-06
4.4776183469e-06
3.92167114462e-06
3.36731581584e-06
2.81372972741e-06
2.25997243808e-06
1.70485692825e-06
1.14668945052e-06
5.82825732358e-07
9.28781467079e-08
0.000191848968246
0.000194491537178
0.000194805843395
0.000193279092832
0.000190913050718
0.000188322080795
0.000185798168152
0.000183448145957
0.000181292436209
0.000179317800145
0.000177501337707
0.000175820016785
0.000174253742178
0.000172785827687
0.000171402577296
0.000170092669298
0.000168846592432
0.000167656199876
0.000166514378662
0.000165414811733
0.00016435180798
0.000163320179756
0.000162315152558
0.000161332296099
0.000160367469503
0.000159416775781
0.000158476522463
0.00015754318633
0.000156613382376
0.0001556838319
0.000154751331972
0.000153812726815
0.000152864880347
0.000151904647309
0.000150928843711
0.000149934216035
0.00014891740854
0.000147874927934
0.000146803104567
0.000145698049121
0.000144555603694
0.000143371285989
0.000142140225295
0.00014085708898
0.000139515998598
0.000138110435494
0.000136633137551
0.000135075991651
0.000133429931562
0.000131684858505
0.000129829612453
0.000127852035318
0.000125739180512
0.000123477731727
0.000121054689721
0.000118458361833
0.000115679641968
0.000112713503913
0.00010956055808
0.000106228446846
0.000102732777307
9.90972318172e-05
9.53525381461e-05
9.15342428372e-05
8.7679707994e-05
8.38251477689e-05
8.00035139977e-05
7.62435796586e-05
7.25699135713e-05
6.9003287767e-05
6.55611655756e-05
6.2258008629e-05
5.91053284851e-05
5.61115334107e-05
5.32816957447e-05
5.06173920357e-05
4.81167484276e-05
4.57747600923e-05
4.35838657082e-05
4.15346823669e-05
3.96167733476e-05
3.78193357449e-05
3.61317388894e-05
3.45438929298e-05
3.30464629109e-05
3.16309618953e-05
3.02897604027e-05
2.90160445795e-05
2.7803747511e-05
2.66474700924e-05
2.55424014961e-05
2.4484244672e-05
2.34691493937e-05
2.24936535526e-05
2.15546324748e-05
2.06492555254e-05
1.97749491287e-05
1.89293652796e-05
1.8110354717e-05
1.73159439954e-05
1.65443158198e-05
1.57937920827e-05
1.5062819151e-05
1.43499550055e-05
1.36538579191e-05
1.29732763896e-05
1.23070401096e-05
1.16540517653e-05
1.1013279505e-05
1.03837499195e-05
9.7645414097e-06
9.15477781228e-06
8.553622175e-06
7.96027056601e-06
7.37394580643e-06
6.79389099231e-06
6.21936263546e-06
5.6496231451e-06
5.08393214413e-06
4.52153559747e-06
3.96165062677e-06
3.40344156799e-06
2.84597819266e-06
2.28815853295e-06
1.72856618112e-06
1.16522308578e-06
5.95222592731e-07
9.76151817745e-08
0.000186213477571
0.000188804232449
0.00018959937727
0.000188806902948
0.000187157074097
0.000185166182066
0.000183121727939
0.000181155489045
0.000179313869974
0.000177602946833
0.000176012522984
0.000174527558486
0.00017313301922
0.000171815593592
0.000170564038998
0.000169368998254
0.000168222661706
0.000167118428787
0.000166050621761
0.000165014261306
0.000164004897266
0.000163018483345
0.000162051284736
0.000161099809524
0.000160160756821
0.000159230976423
0.000158307436284
0.000157387195113
0.000156467380346
0.000155545164357
0.000154617742203
0.000153682312153
0.000152736055759
0.000151776116655
0.00015079957824
0.000149803439711
0.000148784589834
0.000147739777693
0.000146665579534
0.000145558360595
0.000144414230583
0.000143228991187
0.000141998073753
0.000140716465052
0.00013937861905
0.000137978353046
0.000136508727795
0.000134961913954
0.000133329052252
0.000131600123224
0.00012976385511
0.00012780771562
0.000125718052488
0.000123480463205
0.000121080475836
0.00011850459908
0.000115741745363
0.00011278495256
0.000109633243159
0.000106293370078
0.000102781093663
9.91215177292e-05
9.53479956681e-05
9.1499426862e-05
8.76164656078e-05
8.37378132573e-05
7.9897760713e-05
7.61253984765e-05
7.24449652588e-05
6.88766445926e-05
6.54373371012e-05
6.21411028022e-05
5.89992137188e-05
5.60199088557e-05
5.32080286141e-05
5.0564733902e-05
4.80874886435e-05
4.57703987005e-05
4.36048788793e-05
4.15805166398e-05
3.96859612491e-05
3.79096945923e-05
3.62406045173e-05
3.4668346906e-05
3.31835265068e-05
3.1777745025e-05
3.04435647947e-05
2.9174426871e-05
2.7964550533e-05
2.6808830822e-05
2.57027430677e-05
2.46422583592e-05
2.36237709513e-05
2.26440370459e-05
2.17001236792e-05
2.07893662419e-05
1.99093331958e-05
1.90577967056e-05
1.82327080869e-05
1.74321771635e-05
1.66544547856e-05
1.58979179047e-05
1.51610567139e-05
1.44424634596e-05
1.37408225988e-05
1.3054902043e-05
1.23835452679e-05
1.17256641101e-05
1.10802320938e-05
1.04462781553e-05
9.82288064086e-06
9.20916146712e-06
8.60428032714e-06
8.00742882478e-06
7.41782438841e-06
6.83470377848e-06
6.25731589947e-06
5.68491345797e-06
5.11674264907e-06
4.55202939764e-06
3.98995940102e-06
3.42964688602e-06
2.87008287319e-06
2.31004738414e-06
1.74796278028e-06
1.18166492615e-06
6.08092852909e-07
1.04305146132e-07
0.000181690770314
0.000184163603045
0.000185239730502
0.000184964565074
0.000183865213074
0.000182361749097
0.000180719164537
0.000179078674917
0.000177503837212
0.000176016047466
0.000174616355866
0.000173297313584
0.000172048845658
0.000170860893121
0.00016972442816
0.000168631704822
0.000167576183955
0.000166552344399
0.000165555476395
0.000164581495935
0.000163626791823
0.000162688105367
0.000161762438116
0.000160846981986
0.000159939066441
0.000159036118242
0.00015813563026
0.000157235136593
0.000156332193827
0.000155424361569
0.000154509183691
0.000153584174505
0.000152646803261
0.000151694477916
0.000150724527786
0.000149734184488
0.000148720560574
0.000147680625057
0.00014661117489
0.000145508801181
0.000144369848615
0.000143190366128
0.00014196604643
0.000140692151459
0.000139363420477
0.000137973957427
0.000136517094891
0.000134985234137
0.000133369665627
0.000131660383235
0.000129845920301
0.000127913257058
0.000125847875654
0.000123634064007
0.000121255579845
0.000118696764224
0.000115944130053
0.000112988355454
0.000109826509063
0.000106464234261
0.000102917487986
9.92132274938e-05
9.53882996146e-05
9.14861188838e-05
8.75517647271e-05
8.36272180518e-05
7.97484703525e-05
7.59449848234e-05
7.22406019639e-05
6.86548588734e-05
6.52041095854e-05
6.1902111345e-05
5.87600496045e-05
5.57861530393e-05
5.29851415553e-05
5.03577792222e-05
4.79007723062e-05
4.56071388327e-05
4.34670064606e-05
4.14686530206e-05
3.95995567765e-05
3.78472724109e-05
3.62000440109e-05
3.46471540594e-05
3.31790599361e-05
3.17873860625e-05
3.04648333595e-05
2.9205051691e-05
2.80025044491e-05
2.68523413337e-05
2.57502865571e-05
2.46925444065e-05
2.36757213479e-05
2.26967626174e-05
2.17529009403e-05
2.08416150948e-05
1.99605963524e-05
1.91077211414e-05
1.82810286185e-05
1.74787020895e-05
1.6699053466e-05
1.59405101038e-05
1.52016035293e-05
1.44809596515e-05
1.37772901537e-05
1.30893848125e-05
1.24161045487e-05
1.17563750407e-05
1.11091807665e-05
1.04735593503e-05
9.84859610761e-06
9.23341867537e-06
8.62719161897e-06
8.02911087614e-06
7.43839786652e-06
6.85429301389e-06
6.27604829809e-06
5.70291820961e-06
5.13414805695e-06
4.56895782244e-06
4.00651846013e-06
3.44591534026e-06
2.88609014501e-06
2.3257480332e-06
1.76321323383e-06
1.19621928291e-06
6.21639362603e-07
1.13069840567e-07
0.000177997439997
0.000180329671643
0.000181563400963
0.000181652304044
0.000180975479937
0.000179867913287
0.000178563833297
0.000177203151819
0.000175859020072
0.000174564007116
0.000173328510436
0.000172151961867
0.00017102905436
0.000169952952932
0.000168916815347
0.000167914418722
0.000166940339909
0.000165989930218
0.000165059208503
0.000164144733311
0.000163243481518
0.000162352743906
0.00016147003992
0.000160593050168
0.000159719563869
0.000158847438221
0.000157974566907
0.000157098855867
0.000156218204536
0.000155330488402
0.00015443354158
0.000153525145456
0.000152603015588
0.000151664788342
0.000150708006613
0.000149730104043
0.000148728387077
0.000147700014057
0.000146641970366
0.000145551038308
0.000144423760023
0.000143256391195
0.000142044842618
0.000140784605901
0.000139470658743
0.000138097344547
0.000136658221093
0.000135145874359
0.000133551697771
0.000131865646237
0.000130075990798
0.000128169126006
0.000126129517687
0.000123939916845
0.000121581988514
0.0001190374867
0.00011629003052
0.000113327416415
0.000110144279369
0.000106744814813
0.000103145129794
9.93744733564e-05
9.54742220864e-05
9.14937720271e-05
8.7484047585e-05
8.34912166601e-05
7.95532678537e-05
7.56999500179e-05
7.19545082076e-05
6.83356938411e-05
6.48593000096e-05
6.15388906461e-05
5.83857534975e-05
5.54083102646e-05
5.26113082908e-05
4.9995146863e-05
4.75556612836e-05
4.52845393118e-05
4.31703036237e-05
4.11995939918e-05
3.9358428865e-05
3.76332106531e-05
3.60113792906e-05
3.44817357262e-05
3.30345177265e-05
3.16613216248e-05
3.03549472179e-05
2.91092183246e-05
2.79188093141e-05
2.67790920103e-05
2.56860075482e-05
2.46359625121e-05
2.36257463376e-05
2.26524662761e-05
2.17134963531e-05
2.08064372436e-05
1.99290845459e-05
1.90794034798e-05
1.82555084798e-05
1.74556465253e-05
1.66781833256e-05
1.59215917004e-05
1.51844416496e-05
1.44653917341e-05
1.37631814724e-05
1.30766245285e-05
1.24046025088e-05
1.17460592277e-05
1.10999953161e-05
1.04654630728e-05
9.84156145321e-06
9.22743109959e-06
8.62224928975e-06
8.02522466418e-06
7.43559152116e-06
6.85260338531e-06
6.27552537589e-06
5.70362463376e-06
5.13615758404e-06
4.57235204803e-06
4.01138095121e-06
3.45232245791e-06
2.89409865791e-06
2.33538192411e-06
1.77445650537e-06
1.20902684644e-06
6.35977734049e-07
1.23964899821e-07
0.000174942277812
0.000177131144192
0.000178445660111
0.000178790015526
0.000178436974282
0.000177650406539
0.000176631686105
0.000175512724739
0.000174370375758
0.000173244566981
0.000172152972426
0.000171100940326
0.000170087563021
0.00016910913333
0.000168160991595
0.000167238440478
0.00016633714522
0.000165453263678
0.000164583443663
0.000163724762304
0.000162874646399
0.00016203079282
0.000161191097312
0.000160353594398
0.000159516408347
0.000158677713917
0.000157835705176
0.00015698857193
0.000156134480109
0.000155271554555
0.00015439786273
0.00015351140356
0.000152610095476
0.000151691764426
0.000150754131261
0.00014979479789
0.00014881123155
0.000147800746395
0.000146760481369
0.000145687373023
0.000144578121442
0.000143429146768
0.000142236532971
0.000140995954334
0.000139702578868
0.000138350941455
0.000136934778561
0.000135446816591
0.000133878509007
0.000132219725819
0.000130458416712
0.000128580299992
0.000126568675698
0.000124404516667
0.000122067034135
0.000119534905896
0.000116788263031
0.000113811374195
0.000110595818043
0.000107143847658
0.000103471538175
9.96108531425e-05
9.56089622559e-05
9.15231628469e-05
8.74120802743e-05
8.33271388122e-05
7.93085150265e-05
7.53859655631e-05
7.15817939763e-05
6.79137482476e-05
6.43970306311e-05
6.10451526778e-05
5.78697498789e-05
5.48797019503e-05
5.20799789871e-05
4.94706604522e-05
4.70465647053e-05
4.47977368515e-05
4.27106928799e-05
4.07700325067e-05
3.89599761081e-05
3.72655248913e-05
3.56731497809e-05
3.41710687821e-05
3.27492390886e-05
3.13991898983e-05
3.01137905389e-05
2.88870123821e-05
2.77137143596e-05
2.65894632506e-05
2.55103895645e-05
2.44730750291e-05
2.34744661089e-05
2.25118080115e-05
2.15825943732e-05
2.06845287292e-05
1.98154947553e-05
1.89735329954e-05
1.81568223903e-05
1.73636653558e-05
1.65924755089e-05
1.58417673685e-05