/*--------------------------------*- C++ -*----------------------------------*\
  =========                 |
  \\      /  F ield         | OpenFOAM: The Open Source CFD Toolbox
   \\    /   O peration     | Website:  https://openfoam.org
    \\  /    A nd           | Version:  7
     \\/     M anipulation  |
\*---------------------------------------------------------------------------*/
FoamFile
{
    version     2.0;
    format      ascii;
    class       surfaceScalarField;
    location    "3420";
    object      phi;
}
// * * * * * * * * * * * * * * * * * * * * * * * * * * * * * * * * * * * * * //

dimensions      [0 3 -1 0 0 0 0];

internalField   nonuniform List<scalar> 
16192
(
6.92952544107e-10
2.44547455893e-10
4.93623591661e-10
1.99328951392e-10
3.64891395126e-10
1.28732195219e-10
2.82281522224e-10
8.26098713254e-11
2.27600224641e-10
5.46812957266e-11
1.8990850915e-10
3.76917135265e-11
1.62868117951e-10
2.70403892255e-11
1.42769885674e-10
2.00982303521e-11
1.27382092647e-10
1.53877911648e-11
1.15314057056e-10
1.20680338167e-11
1.05666452408e-10
9.64760296327e-12
9.78363423208e-11
7.83010851592e-12
9.14057850841e-11
6.43055577323e-12
8.6076294693e-11
5.32948906252e-12
8.16290589077e-11
4.44723457972e-12
7.79000252869e-11
3.72903256751e-12
7.47638212659e-11
3.13620310343e-12
7.21230784864e-11
2.64074202851e-12
6.99011575313e-11
2.22192034896e-12
6.80370709127e-11
1.86408618974e-12
6.64818627801e-11
1.55520785372e-12
6.519597729e-11
1.28588539536e-12
6.41473119659e-11
1.04866538055e-12
6.33097558606e-11
8.37556348535e-13
6.26620764967e-11
6.47679756097e-13
6.21870627955e-11
4.75014279604e-13
6.18708580549e-11
3.16205462869e-13
6.17024369058e-11
1.6842205502e-13
6.167319184e-11
2.92461090439e-14
6.17766049671e-11
-1.03411903028e-13
6.20079850637e-11
-2.31378740898e-13
6.23642561698e-11
-3.56269570238e-13
6.28437862589e-11
-4.79528423279e-13
6.34462469791e-11
-6.02458869294e-13
6.41724953401e-11
-7.26246374287e-13
6.50244705012e-11
-8.51972975415e-13
6.60050974293e-11
-9.80624589966e-13
6.71181904485e-11
-1.11309045624e-12
6.83683472652e-11
-1.25015407249e-12
6.97608245137e-11
-1.39247424162e-12
7.13013825388e-11
-1.54055479703e-12
7.29960870253e-11
-1.69470094937e-12
7.48510512805e-11
-1.85496045185e-12
7.68721030615e-11
-2.02104762178e-12
7.90643568771e-11
-2.19224935029e-12
8.14316750478e-11
-2.36731331463e-12
8.39760017406e-11
-2.54432150875e-12
8.669656293e-11
-2.72055560393e-12
8.95889351219e-11
-2.89236628662e-12
9.26440061753e-11
-3.05506476932e-12
9.58468748704e-11
-3.20286213523e-12
9.91757696976e-11
-3.32888794859e-12
1.02601100025e-10
-3.42532325472e-12
1.06084787534e-10
-3.48368021943e-12
1.09580045309e-10
-3.49525042077e-12
1.13031775377e-10
-3.45172265447e-12
1.16377723898e-10
-3.34594124687e-12
1.19550469272e-10
-3.17273829303e-12
1.22480211975e-10
-2.92973607963e-12
1.25098204639e-10
-2.61798661343e-12
1.27340518119e-10
-2.24230832989e-12
1.29151729024e-10
-1.81120680775e-12
1.3048806796e-10
-1.33633623188e-12
1.31319629437e-10
-8.31560283564e-13
1.31631405112e-10
-3.11776253787e-13
1.31423130396e-10
2.08272369561e-13
1.30708147282e-10
7.14978886408e-13
1.29511626101e-10
1.19651523368e-12
1.27868491209e-10
1.64312726006e-12
1.25821324787e-10
2.04715739156e-12
1.23418404703e-10
2.4029097842e-12
1.20711921256e-10
2.70647221776e-12
1.17756340547e-10
2.95556871002e-12
1.1460686087e-10
3.14946723903e-12
1.11317924042e-10
3.28892409104e-12
1.07941788001e-10
3.37612328787e-12
1.04527208511e-10
3.41456680773e-12
1.01118308575e-10
3.40888753877e-12
9.77537148486e-11
3.36458163957e-12
9.44660208489e-11
3.28768236689e-12
9.12815964782e-11
3.18441316112e-12
8.82207237492e-11
3.06086203099e-12
8.52980021375e-11
2.92271135551e-12
8.25229488e-11
2.77504357309e-12
7.99007119289e-11
2.62222750749e-12
7.74328248844e-11
2.46787810977e-12
7.5117941825e-11
2.31487445546e-12
7.29525150885e-11
2.16541848224e-12
7.09313896205e-11
2.02111746899e-12
6.90483053094e-11
1.88307658571e-12
6.72963065419e-11
1.75199123178e-12
6.56680664251e-11
1.62823279386e-12
6.41561351489e-11
1.51192409578e-12
6.27531248367e-11
1.40300330427e-12
6.14518417317e-11
1.30127621319e-12
6.02453770198e-11
1.20645797232e-12
5.91271649088e-11
1.11820547994e-12
5.80910163743e-11
1.03614205167e-12
5.71311343209e-11
9.59875685563e-13
5.62421157676e-11
8.89012341372e-13
5.5418944438e-11
8.23165247822e-13
5.46569772463e-11
7.61961279702e-13
5.395192641e-11
7.0504507363e-13
5.32998392421e-11
6.52081591408e-13
5.26970762957e-11
6.02757539156e-13
5.21402889702e-11
5.56782119896e-13
5.16263965806e-11
5.13887371439e-13
5.11525633399e-11
4.73828437423e-13
5.07161747758e-11
4.3638396332e-13
5.03148134699e-11
4.01356930108e-13
4.99462331541e-11
3.6857615419e-13
4.96083303842e-11
3.37898840181e-13
4.92991120929e-11
3.09214584206e-13
4.90166571553e-11
2.82451466256e-13
4.87590688595e-11
2.5758505278e-13
4.85244142638e-11
2.34651590311e-13
4.8310644232e-11
2.13767258685e-13
4.81154852494e-11
1.95156449182e-13
4.79362891802e-11
1.79193773765e-13
4.77698195326e-11
1.66467598725e-13
4.76119395606e-11
1.57878175139e-13
4.74571456034e-11
1.54792426213e-13
4.72978531188e-11
1.59291232641e-13
4.71232932598e-11
1.74558897308e-13
4.69178505096e-11
2.05442072081e-13
4.66589469488e-11
2.58903132097e-13
4.63163844542e-11
3.42562253355e-13
4.39469678103e-13
9.53439609619e-10
2.28607845674e-10
8.59682874379e-10
2.93085683841e-10
7.45086077092e-10
2.4332898921e-10
6.41786567083e-10
1.85909377498e-10
5.56414910986e-10
1.40052947657e-10
4.87776275984e-10
1.06330344286e-10
4.32856757593e-10
8.19599034247e-11
3.88710840405e-10
6.4244143464e-11
3.52930717355e-10
5.11679102848e-11
3.23663985172e-10
4.13347622496e-11
2.99513893586e-10
3.37976909939e-11
2.79429758033e-10
2.79142407382e-11
2.62616445082e-10
2.32438656271e-11
2.48466243611e-10
1.94796876963e-11
2.36509394651e-10
1.64040809687e-11
2.263785919e-10
1.3859833037e-11
2.17783505615e-10
1.17312873979e-11
2.10492384197e-10
9.93186176829e-12
2.04318638951e-10
8.39566422317e-12
1.99110952451e-10
7.07177164717e-12
1.94745898259e-10
5.92026131581e-12
1.91122369432e-10
4.90941382786e-12
1.8815732408e-10
4.01371065159e-12
1.85782501914e-10
3.21237876588e-12
1.83941864525e-10
2.48831770324e-12
1.8258958203e-10
1.82729765736e-12
1.81688436033e-10
1.21735263677e-12
1.81208543699e-10
6.48315877677e-13
1.81126330835e-10
1.11460741559e-13
1.81423700019e-10
-4.00779017928e-13
1.82087350346e-10
-8.95026730644e-13
1.83108216286e-10
-1.37713287903e-12
1.84480998537e-10
-1.85230777692e-12
1.86203763867e-10
-2.32522100209e-12
1.88277592539e-10
-2.80007156971e-12
1.90706254494e-10
-3.28063112894e-12
1.93495894475e-10
-3.7702604559e-12
1.96654706764e-10
-4.27189825755e-12
2.00192577296e-10
-4.78801974648e-12
2.04120669909e-10
-5.32056155405e-12
2.0845092927e-10
-5.87080841308e-12
2.13195471419e-10
-6.43923683015e-12
2.18365828706e-10
-7.02531094564e-12
2.23972015876e-10
-7.6272273958e-12
2.30021383264e-10
-8.2416087493e-12
2.36517229331e-10
-8.86315073652e-12
2.43457153738e-10
-9.48423664303e-12
2.50831152641e-10
-1.00945445633e-11
2.58619485576e-10
-1.06806886634e-11
2.66790386469e-10
-1.12259544739e-11
2.75297743092e-10
-1.17102070262e-11
2.84078933679e-10
-1.21100662754e-11
2.93053072352e-10
-1.23994492672e-11
3.02119971798e-10
-1.25505666689e-11
3.11160158895e-10
-1.25354243801e-11
3.20036265824e-10
-1.23278164554e-11
3.28596041642e-10
-1.19057042474e-11
3.36677085402e-10
-1.12537698222e-11
3.44113187079e-10
-1.03658265496e-11
3.50741905339e-10
-9.24669508797e-12
3.56412746523e-10
-7.91314167699e-12
3.60995108962e-10
-6.39356378657e-12
3.64385086581e-10
-4.72631124229e-12
3.66510349213e-10
-2.95682344677e-12
3.67332625897e-10
-1.13405686255e-12
3.66847742563e-10
6.9314837825e-13
3.65083568428e-10
2.47914234543e-12
3.62096490762e-10
4.18357915847e-12
3.57967076019e-10
5.7725254953e-12
3.52795463225e-10
7.21875138544e-12
3.46696836301e-10
8.50151603118e-12
3.39797123239e-10
9.6061632551e-12
3.32228929288e-10
1.05237397012e-11
3.24127659417e-10
1.12507136929e-11
3.15627803525e-10
1.17887564425e-11
3.06859423828e-10
1.21444796852e-11
2.97944952229e-10
1.23290155597e-11
2.88996452005e-10
1.23573656035e-11
2.80113497292e-10
1.22475149667e-11
2.71381782513e-10
1.201937665e-11
2.62872499463e-10
1.16936765923e-11
2.54642441133e-10
1.12909016523e-11
2.46734721983e-10
1.08304126307e-11
2.39179963624e-10
1.03297848751e-11
2.31997779334e-10
9.8043954522e-12
2.25198402589e-10
9.26723918096e-12
2.18784329332e-10
8.72893260064e-12
2.1275187835e-10
8.19785487135e-12
2.07092606133e-10
7.68037551314e-12
2.0179454294e-10
7.18112599465e-12
1.96843238237e-10
6.70328245892e-12
1.92222620874e-10
6.24883697912e-12
1.87915688244e-10
5.81884378564e-12
1.839050452e-10
5.41363365327e-12
1.80173314273e-10
5.03299465333e-12
1.7670343952e-10
4.67632046819e-12
1.73478903575e-10
4.34272937742e-12
1.70483876098e-10
4.03115772343e-12
1.67703308237e-10
3.7404319742e-12
1.65122986072e-10
3.46932320467e-12
1.62729552746e-10
3.21658753869e-12
1.60510507766e-10
2.98099553146e-12
1.58454189323e-10
2.76135309529e-12
1.56549744782e-10
2.55651605275e-12
1.54787092477e-10
2.36540010776e-12
1.5315687759e-10
2.18698764478e-12
1.51650423377e-10
2.02033259778e-12
1.50259678827e-10
1.86456440084e-12
1.48977162615e-10
1.71889198784e-12
1.47795903052e-10
1.58260872501e-12
1.46709372612e-10
1.45509924283e-12
1.45711415324e-10
1.3358492093e-12
1.44796164089e-10
1.22445932913e-12
1.43957944362e-10
1.12066514324e-12
1.43191159108e-10
1.02436469317e-12
1.42490148789e-10
9.35656743108e-13
1.41849018169e-10
8.54893156485e-13
1.41261420185e-10
7.82750168098e-13
1.40720285459e-10
7.2032469766e-13
1.40217486608e-10
6.69263126699e-13
1.39743432101e-10
6.31929853825e-13
1.39286605013e-10
6.11617197613e-13
1.38833120783e-10
6.12773662333e-13
1.38366534923e-10
6.41143457485e-13
1.37868545191e-10
7.03430946491e-13
1.37322248909e-10
8.0519889978e-13
1.36722883212e-10
9.41927757995e-13
1.06660058422e-12
9.7622795533e-10
1.89879889029e-10
9.62925835183e-10
3.06387799695e-10
9.05870604901e-10
3.00384214905e-10
8.33217038539e-10
2.58562939148e-10
7.59963566725e-10
2.13306414582e-10
6.92530962148e-10
1.73762943948e-10
6.33001099046e-10
1.41489761666e-10
5.81488957108e-10
1.15756280652e-10
5.37320318474e-10
9.53365442965e-11
4.99580500321e-10
7.90745759456e-11
4.67352815125e-10
6.60253718996e-11
4.39810414848e-10
5.5456636933e-11
4.16241866108e-10
4.6812410486e-11
3.96048746726e-10
3.967280344e-11
3.78732963013e-10
3.37198612736e-11
3.63881625472e-10
2.87111674421e-11
3.51152696426e-10
2.44602135615e-11
3.40262517872e-10
2.08220377359e-11
3.30975412449e-10
1.76827673287e-11
3.23095189243e-10
1.49519928465e-11
3.16458271762e-10
1.2557177065e-11
3.10928158406e-10
1.04395257712e-11
3.06390956647e-10
8.55091127139e-12
3.02751775786e-10
6.85155880708e-12
2.99931803181e-10
5.30828975522e-12
2.97865925597e-10
3.89317499951e-12
2.9650078506e-10
2.582493186e-12
2.95793182842e-10
1.35591841005e-12
2.95708761657e-10
1.95882481112e-13
2.96220911182e-10
-9.12927698535e-13
2.97309849742e-10
-1.98396421705e-12
2.98961846446e-10
-3.02912822393e-12
3.0116855095e-10
-4.05901069707e-12
3.03926402395e-10
-5.08307057015e-12
3.07236090059e-10
-6.10975711967e-12
3.11102040789e-10
-7.14657942672e-12
3.15531906325e-10
-8.20012329087e-12
3.20536024099e-10
-9.27601296298e-12
3.26126821176e-10
-1.03788134303e-11
3.3231813012e-10
-1.15118666679e-11
3.39124380548e-10
-1.2677054611e-11
3.46559629194e-10
-1.38744807258e-11
3.54636387242e-10
-1.510206376e-11
3.6336420565e-10
-1.63550399663e-11
3.72747980457e-10
-1.76253771637e-11
3.82785950918e-10
-1.89011141397e-11
3.93467377653e-10
-2.01656557233e-11
4.04769917081e-10
-2.13970756485e-11
4.16656745904e-10
-2.25675085539e-11
4.29073545718e-10
-2.36427446954e-11
4.41945523256e-10
-2.45821744432e-11
4.551747215e-10
-2.53392538274e-11
4.68637952257e-10
-2.58626689318e-11
4.82185746773e-10
-2.60983496958e-11
4.95642747665e-10
-2.59924136197e-11
5.08809940778e-10
-2.54949978325e-11
5.21469019811e-10
-2.45647718015e-11
5.33388989387e-10
-2.31737283716e-11
5.44334838051e-10
-2.13116651134e-11
5.540777881e-10
-1.89896362748e-11
5.62406294986e-10
-1.62416415058e-11
5.69136714515e-10
-1.31239784022e-11
5.74122462719e-10
-9.71205719821e-12
5.77260646981e-10
-6.0950083322e-12
5.78495541522e-10
-2.36895520787e-12
5.77818830327e-10
1.36985265226e-12
5.75267062449e-10
5.03090016824e-12
5.70917105715e-10
8.53352304269e-12
5.64880439673e-10
1.18091761139e-11
5.57296987261e-10
1.48021863131e-11
5.48328936522e-10
1.7469547556e-11
5.38154760457e-10
1.97803189311e-11
5.26963472269e-10
2.1715006657e-11
5.14949091407e-10
2.32650729814e-11
5.02305317887e-10
2.44325083072e-11
4.89220491787e-10
2.5229284442e-11
4.75872995415e-10
2.56764910469e-11
4.62427308542e-10
2.58030323164e-11
4.49030920014e-10
2.56438840908e-11
4.35812241815e-10
2.52380363501e-11
4.22879573372e-10
2.46263273849e-11
4.10321061724e-10
2.38493965614e-11
3.98205513608e-10
2.29459448062e-11
3.86583862699e-10
2.19514206548e-11
3.75491074438e-10
2.08971692555e-11
3.64948284428e-10
1.98100153945e-11
3.54964996246e-10
1.87122075036e-11
3.45541207489e-10
1.76216308552e-11
3.36669373057e-10
1.65521975462e-11
3.28336153637e-10
1.5514333387e-11
3.20523925463e-10
1.45154988684e-11
3.13212050837e-10
1.35607001179e-11
3.06377921825e-10
1.26529615041e-11
2.99997799563e-10
1.17937448445e-11
2.94047474183e-10
1.09833091257e-11
2.88502772644e-10
1.02210113047e-11
2.83339939304e-10
9.50555218037e-12
2.78535913041e-10
8.83517366501e-12
2.74068520686e-10
8.20781419533e-12
2.69916604687e-10
7.62122930913e-12
2.6606009893e-10
7.07308362458e-12
2.62480065015e-10
6.56102004693e-12
2.59158697985e-10
6.08271098576e-12
2.56079309328e-10
5.63589587535e-12
2.53226292512e-10
5.21840838448e-12
2.50585075596e-10
4.82819635465e-12
2.48142063466e-10
4.46333684712e-12
2.45884571818e-10
4.12204852442e-12
2.43800753438e-10
3.80270319063e-12
2.41879517012e-10
3.50383834769e-12
2.40110437348e-10
3.22417246807e-12
2.38483655605e-10
2.96262489573e-12
2.3698976689e-10
2.7183423637e-12
2.35619692248e-10
2.49073449255e-12
2.34364531134e-10
2.27952089763e-12
2.33215390402e-10
2.08479295669e-12
2.32163185989e-10
1.9070934404e-12
2.31198415444e-10
1.74751698363e-12
2.30310903999e-10
1.60783281775e-12
2.29489537499e-10
1.49062672365e-12
2.28722017121e-10
1.39944776662e-12
2.27994714333e-10
1.33891797907e-12
2.27292788623e-10
1.31469782934e-12
2.26600888935e-10
1.33304204678e-12
2.2590503149e-10
1.3992876863e-12
2.25196663141e-10
1.51356688465e-12
2.24479195504e-10
1.65939526296e-12
1.77636584704e-12
9.71719888413e-10
1.55659998834e-10
9.86464102378e-10
2.91643580399e-10
9.6765478828e-10
3.19193523715e-10
9.2690854277e-10
2.99309179032e-10
8.7608737423e-10
2.64127577228e-10
8.22725019497e-10
2.27125292728e-10
7.709840404e-10
1.93230734852e-10
7.22909373298e-10
1.63830941937e-10
6.79324681303e-10
1.38921230588e-10
6.40388635373e-10
1.18010616312e-10
6.05920567311e-10
1.00493434552e-10
5.75584271179e-10
8.57929278304e-11
5.48988389341e-10
7.34082872786e-11
5.25739033058e-10
6.29221548847e-11
5.05465613359e-10
5.3993276353e-11
4.87831967022e-10
4.63448093966e-11
4.72539637938e-10
3.97525385036e-11
4.5932715793e-10
3.4034513861e-11
4.47967448843e-10
2.90424727903e-11
4.38264493665e-10
2.465494467e-11
4.30049877328e-10
2.07717903126e-11
4.23179494688e-10
1.73099055977e-11
4.17530556755e-10
1.41998466555e-11
4.12998937988e-10
1.13831752975e-11
4.09496861455e-10
8.81036426759e-12
4.06950897328e-10
6.43913736674e-12
4.05300240666e-10
4.23314832928e-12
4.04495232594e-10
2.16092520847e-12
4.04496089219e-10
1.9502480525e-13
4.05271805337e-10
-1.6886446394e-12
4.0679920035e-10
-3.51135984849e-12
4.09062081059e-10
-5.29200933934e-12
4.12050493004e-10
-7.04742285268e-12
4.15760034278e-10
-8.79261184619e-12
4.20191205774e-10
-1.05409284198e-11
4.2534877181e-10
-1.23041450436e-11
4.3124110307e-10
-1.40924539075e-11
4.37879472442e-10
-1.59143814293e-11
4.45277270986e-10
-1.77766107932e-11
4.53449108967e-10
-1.96837031394e-11
4.62409763071e-10
-2.16377068513e-11
4.72172929086e-10
-2.36376444578e-11
4.82749737224e-10
-2.56788691633e-11
4.94146989145e-10
-2.77522886326e-11
5.06365079998e-10
-2.98434642086e-11
5.1939558069e-10
-3.19316104071e-11
5.33218474376e-10
-3.39885443477e-11
5.4779907283e-10
-3.59776683533e-11
5.63084682208e-10
-3.78531114945e-11
5.79001148831e-10
-3.95592041645e-11
5.95449489961e-10
-4.10305077266e-11
6.12302901515e-10
-4.21926568448e-11
6.29404520855e-10
-4.29642791052e-11
6.4656639559e-10
-4.32602146843e-11
6.63570142644e-10
-4.29961504742e-11
6.80169753854e-10
-4.20945985257e-11
6.96096888374e-10
-4.04918957257e-11
7.1106877887e-10
-3.81456084648e-11
7.24798567507e-10
-3.50414439264e-11
7.3700750924e-10
-3.11985691763e-11
7.47438084849e-10
-2.66722097726e-11
7.55866746987e-10
-2.15526351513e-11
7.62114890372e-10
-1.59601976094e-11
7.66056800487e-10
-1.00369182227e-11
7.67623812512e-10
-3.9359699983e-12
7.66804591237e-10
2.18906812317e-12
7.63642092195e-10
8.19339044056e-12
7.58228168982e-10
1.3947434766e-11
7.50696841114e-10
1.93404900882e-11
7.41217038064e-10
2.42819734878e-11
7.29985324908e-10
2.87012432732e-11
7.17218823888e-10
3.25468014104e-11
7.03148357407e-10
3.57854539009e-11
6.88011777269e-10
3.84016335967e-11
6.72047486333e-10
4.03967797566e-11
6.55488259222e-10
4.17884924115e-11
6.38555570029e-10
4.26091616464e-11
6.21454694666e-10
4.2903889817e-11
6.04370844111e-10
4.27277176003e-11
5.87466508009e-10
4.21423562963e-11
5.70880066952e-10
4.12127531651e-11
5.54725605098e-10
4.0003844014e-11
5.39093749897e-10
3.85777864139e-11
5.24053303481e-10
3.6991854236e-11
5.09653409775e-10
3.52970507905e-11
4.9592601772e-10
3.35373958756e-11
4.82888438129e-10
3.17497760192e-11
4.70545840079e-10
2.99642182628e-11
4.5889357988e-10
2.82044474475e-11
4.47919298436e-10
2.64886048285e-11
4.37604755852e-10
2.48300316793e-11
4.27927397586e-10
2.32380488095e-11
4.1886166268e-10
2.17186869916e-11
4.10380055443e-10
2.0275342811e-11
4.02454006757e-10
1.89093486666e-11
3.95054553506e-10
1.76204555435e-11
3.88152863599e-10
1.64072332014e-11
3.81720632598e-10
1.52673959266e-11
3.75730374799e-10
1.4198063405e-11
3.70155629062e-10
1.31959666316e-11
3.64971096244e-10
1.22576082111e-11
3.60152722651e-10
1.13793856189e-11
3.55677740951e-10
1.05576848836e-11
3.51524678079e-10
9.78895119034e-12
3.47673337294e-10
9.06974186542e-12
3.44104760188e-10
8.39676643026e-12
3.40801172636e-10
7.76691764941e-12
3.37745917699e-10
7.17729700996e-12
3.34923377133e-10
6.62523760626e-12
3.32318882452e-10
6.10832719267e-12
3.2991861543e-10
5.62443396882e-12
3.27709497461e-10
5.17173766997e-12
3.25679066434e-10
4.74876851889e-12
3.23815339698e-10
4.35445668741e-12
3.2210666154e-10
3.9881948441e-12
3.20541534515e-10
3.64991610343e-12
3.19108435663e-10
3.34018874627e-12
3.17795622526e-10
3.06032691472e-12
3.16590940796e-10
2.81251168611e-12
3.15481657946e-10
2.59990706829e-12
3.14454368238e-10
2.42673533927e-12
3.13495049134e-10
2.29823533679e-12
3.12589402294e-10
2.22034331385e-12
3.1172368331e-10
2.19876004956e-12
3.10886279965e-10
2.23669043291e-12
3.10070095564e-10
2.32975102748e-12
3.09274293334e-10
2.45519748358e-12
2.55315574576e-12
9.63867078263e-10
1.29292917637e-10
9.87395999419e-10
2.6811465258e-10
9.89116652725e-10
3.17472863736e-10
9.71120649003e-10
3.173051761e-10
9.40360658699e-10
2.94887560733e-10
9.02889991962e-10
2.64595952636e-10
8.62910301594e-10
2.3321041844e-10
8.23074989392e-10
2.03666247447e-10
7.84945399035e-10
1.77050814361e-10
7.49364248839e-10
1.53591760055e-10
7.16720201073e-10
1.33137476007e-10
6.8712471878e-10
1.15388403977e-10
6.60526692099e-10
1.00006307988e-10
6.36785194181e-10
8.66636470282e-11
6.15714825444e-10
7.50636395184e-11
5.97113408971e-10
6.49462205227e-11
5.80778458741e-10
5.60874836136e-11
5.66516581148e-10
4.82963865801e-11
5.54148478514e-10
4.14105707946e-11
5.43511254665e-10
3.52921641477e-11
5.34459098672e-10
2.98239421853e-11
5.26863024023e-10
2.49059763891e-11
5.20610085747e-10
2.04527813242e-11
5.15602336564e-10
1.6390921131e-11
5.11755680169e-10
1.26570175537e-11
5.08998715126e-10
9.19609954646e-12
5.07271621428e-10
5.9602393877e-12
5.06525116242e-10
2.90742798286e-12
5.06719488599e-10
6.50239535788e-16
5.07823712065e-10
-2.79287010822e-12
5.0981462692e-10
-5.50227652383e-12
5.12676184816e-10
-8.15356886839e-12
5.16398737363e-10
-1.0769976865e-11
5.20978351569e-10
-1.33722273367e-11
5.26416131854e-10
-1.59787098236e-11
5.32717526262e-10
-1.86055403791e-11
5.39891591204e-10
-2.12665195867e-11
5.47950186534e-10
-2.39729772682e-11
5.56907068948e-10
-2.67334934732e-11
5.66776848797e-10
-2.95534829571e-11
5.77573771699e-10
-3.24346293942e-11
5.89310284292e-10
-3.5374156294e-11
6.01995341852e-10
-3.83639255288e-11
6.15632417432e-10
-4.13893625007e-11
6.3021717708e-10
-4.4428221585e-11
6.45734797793e-10
-4.744922821e-11
6.62156924387e-10
-5.04106673607e-11
6.79438293738e-10
-5.32590333854e-11
6.9751310038e-10
-5.59279130627e-11
7.16291241062e-10
-5.83373389732e-11
7.35654655364e-10
-6.03939153651e-11
7.55454073946e-10
-6.19920679556e-11
7.75506583548e-10
-6.30167804756e-11
7.95594503888e-10
-6.33481260622e-11
8.1546611855e-10
-6.28677555583e-11
8.34838782772e-10
-6.14672526739e-11
8.53404814938e-10
-5.90579175575e-11
8.70840350468e-10
-5.55811336675e-11
8.86816993543e-10
-5.10180770822e-11
9.01015669756e-10
-4.53972363062e-11
9.13141612836e-10
-3.87981451403e-11
9.2293901201e-10
-3.13500284803e-11
9.30203645572e-10
-2.32248277009e-11
9.34791986536e-10
-1.46252584474e-11
9.36625842557e-10
-5.76982827967e-12
9.35692447504e-10
3.12245786999e-12
9.320407402e-10
1.1845089466e-11
9.25775044119e-10
2.02131198619e-11
9.17047376197e-10
2.80681446471e-11
9.06049316535e-10
3.52800178498e-11
8.93003962838e-10
4.174658016e-11
8.78158140505e-10
4.73926058938e-11
8.61774831583e-10
5.216874434e-11
8.44125738489e-10
5.60507079871e-11
8.25483972859e-10
5.90385267851e-11
8.06116998261e-10
6.11554488158e-11
7.86280088756e-10
6.24460535662e-11
7.66210639965e-10
6.29733218091e-11
7.46123652969e-10
6.2814688663e-11
7.26208611626e-10
6.2057382636e-11
7.06627822515e-10
6.07935281889e-11
6.87516132094e-10
5.91155212489e-11
6.68981813387e-10
5.71120927633e-11
6.5110834593e-10
5.48653101052e-11
6.33956795471e-10
5.24485903335e-11
6.175685237e-10
4.99256573262e-11
6.01968004464e-10
4.73502854261e-11
5.87165578601e-10
4.47666347148e-11
5.73160032413e-10
4.22099845532e-11
5.59940930902e-10
3.97076975284e-11
5.47490672266e-10
3.72802817069e-11
5.3578625654e-10
3.49424560968e-11
5.24800778385e-10
3.27041568336e-11
5.1450466515e-10
3.05714478472e-11
5.04866686624e-10
2.85473190883e-11
4.95854765363e-10
2.6632368799e-11
4.87436615902e-10
2.48253747521e-11
4.79580239729e-10
2.31237643034e-11
4.72254300092e-10
2.1523995365e-11
4.6542839811e-10
2.00218610795e-11
4.59073268418e-10
1.86127305224e-11
4.53160910022e-10
1.72917368134e-11
4.4766466516e-10
1.60539227347e-11
4.42559256875e-10
1.48943526776e-11
4.37820793695e-10
1.3808198472e-11
4.33426748234e-10
1.27908055602e-11
4.29355914786e-10
1.18377450184e-11
4.25588349818e-10
1.09448561632e-11
4.22105298007e-10
1.01082838756e-11
4.18889105614e-10
9.32451432462e-12
4.15923122152e-10
8.59041245465e-12
4.13191590771e-10
7.90326436614e-12
4.10679527369e-10
7.26082752886e-12
4.08372588461e-10
6.66139149945e-12
4.06256928157e-10
6.10385134763e-12
4.04319045745e-10
5.58779501273e-12
4.02545627398e-10
5.11360388997e-12
4.00923389226e-10
4.68256218427e-12
3.99438934794e-10
4.29696352128e-12
3.98078649451e-10
3.9601901306e-12
3.96828667314e-10
3.67671552668e-12
3.95674964959e-10
3.45193609028e-12
3.94603655573e-10
3.29165146401e-12
3.93601562561e-10
3.20085218741e-12
3.92657077146e-10
3.18117531769e-12
3.91760921526e-10
3.22590644387e-12
3.90905049254e-10
3.31106978414e-12
3.3829157078e-12
9.57443670424e-10
1.09349244109e-10
9.82162935642e-10
2.43395380304e-10
9.94222052854e-10
3.05413739664e-10
9.90894440269e-10
3.20632781512e-10
9.75340995703e-10
3.10440997856e-10
9.51676082089e-10
2.88260858747e-10
9.23361940317e-10
2.61524552753e-10
8.92940244447e-10
2.34087935947e-10
8.62155285187e-10
2.07835766359e-10
8.32147004506e-10
1.83600033597e-10
8.03623090657e-10
1.61661382853e-10
7.76992080054e-10
1.42019407731e-10
7.52460512392e-10
1.24537868965e-10
7.30101790525e-10
1.09022362394e-10
7.09904117189e-10
9.52613065461e-11
6.91803427006e-10
8.30469046059e-11
6.75705743463e-10
7.21851612734e-11
6.61502165843e-10
6.2499958546e-11
6.49078761548e-10
5.38339696683e-11
6.38322960966e-10
4.60479595493e-11
6.29127567302e-10
3.90193309093e-11
6.21393152132e-10
3.26403868641e-11
6.15029368248e-10
2.68165607515e-11
6.09955545072e-10
2.14647400907e-11
6.0610081627e-10
1.65117423672e-11
6.03403949291e-10
1.18929627659e-11
6.01812990812e-10
7.55119431746e-12
6.0128480372e-10
3.43561173419e-12
6.01784544073e-10
-4.99093264174e-13
6.03285105804e-10
-4.29343480492e-12
6.05766550116e-10
-7.9837236343e-12
6.09215529359e-10
-1.16025507441e-11
6.13624699607e-10
-1.51791495937e-11
6.18992115431e-10
-1.87396454844e-11
6.2532059462e-10
-2.2307191186e-11
6.32617036343e-10
-2.59019841061e-11
6.40891671779e-10
-2.95411568508e-11
6.50157222457e-10
-3.32385295635e-11
6.60427937214e-10
-3.70042096104e-11
6.71718475061e-10
-4.08440218934e-11
6.84042597352e-10
-4.47587524405e-11
6.97411630055e-10
-4.8743189343e-11
7.1183265507e-10
-5.2784950422e-11
7.27306390697e-10
-5.68630974533e-11
7.4382472557e-10
-6.09465551653e-11
7.61367881022e-10
-6.49923816643e-11
7.79901195133e-10
-6.89439787124e-11
7.99371552254e-10
-7.27293869115e-11
8.19703526761e-10
-7.62598831008e-11
8.40795374076e-10
-7.94291808966e-11
8.62515085881e-10
-8.21136208446e-11
8.84696829712e-10
-8.41738045131e-11
9.07138205947e-10
-8.54581485161e-11
9.2959886142e-10
-8.58087724571e-11
9.51801069117e-10
-8.50699533913e-11
9.73432883406e-10
-8.3099056447e-11
9.94154373294e-10
-7.9779396504e-11
1.01360719875e-09
-7.50339480502e-11
1.03142741974e-09
-6.88382872929e-11
1.04726093329e-09
-6.12307398658e-11
1.06078036864e-09
-5.23175718539e-11
1.07170174101e-09
-4.22713941676e-11
1.07979885374e-09
-3.13219362531e-11
1.08491357563e-09
-1.97399790937e-11
1.08696082706e-09
-7.81708168639e-12
1.08592821728e-09
4.15506240544e-12
1.08187133645e-09
1.59019618902e-11
1.07490627663e-09
2.7178168417e-11
1.06520089547e-09
3.77735121028e-11
1.05296588337e-09
4.75150142676e-11
1.03844614374e-09
5.62663026144e-11
1.02191256034e-09
6.39261711258e-11
1.00365399888e-09
7.04272870823e-11
9.83969367996e-10
7.57353200046e-11
9.63159689844e-10
7.98481862846e-11
9.41520325221e-10
8.27947952956e-11
9.193336792e-10
8.46326821693e-11
8.96862811306e-10
8.54441731752e-11
8.74346352815e-10
8.53311315975e-11
8.5199500329e-10
8.44087176249e-11
8.29989686571e-10
8.27988313757e-11
8.08481255958e-10
8.0623939302e-11
7.87591495708e-10
7.8001841351e-11
7.67415092849e-10
7.50417021246e-11
7.480222437e-10
7.1841429363e-11
7.29461595564e-10
6.84862959708e-11
7.11763282989e-10
6.50485890304e-11
6.94941883119e-10
6.15880260484e-11
6.78999173894e-10
5.8152685581e-11
6.6392662785e-10
5.47802356448e-11
6.49707610847e-10
5.14992909833e-11
6.36319281127e-10
4.83307782463e-11
6.23734200832e-10
4.52892296711e-11
6.11921682331e-10
4.23839589862e-11
6.00848896675e-10
3.96200974563e-11
5.90481773448e-10
3.69994848168e-11
5.8078572063e-10
3.45214204349e-11
5.71726191565e-10
3.21832863246e-11
5.6326912339e-10
2.99810565931e-11
5.55381268716e-10
2.79097089276e-11
5.48030439258e-10
2.59635532868e-11
5.41185677585e-10
2.41364919489e-11
5.34817370416e-10
2.24222235359e-11
5.28897314758e-10
2.08144021579e-11
5.23398746013e-10
1.93067612416e-11
5.18296335507e-10
1.78932103104e-11
5.1356616327e-10
1.65679117289e-11
5.09185670657e-10
1.53253434913e-11
5.05133596226e-10
1.41603532692e-11
5.01389897428e-10
1.30682083426e-11
4.97935659881e-10
1.20446454817e-11
4.94752995534e-10
1.10859244601e-11
4.91824930664e-10
1.01888884116e-11
4.89135284707e-10
9.35103373917e-12
4.86668541216e-10
8.5705913897e-12
4.84409713186e-10
7.84661986485e-12
4.82344206498e-10
7.17910766799e-12
4.8045768781e-10
6.56907823506e-12
4.78735966854e-10
6.01868211159e-12
4.77164908239e-10
5.53124666154e-12
4.75730393804e-10
5.11122816826e-12
4.74418361711e-10
4.76396670161e-12
4.73214945446e-10
4.49506657969e-12
4.72106703172e-10
4.30909367271e-12
4.7108080118e-10
4.20707688736e-12
4.70124626768e-10
4.18208075234e-12
4.69223419625e-10
4.21227702647e-12
4.25269401773e-12
9.52798826489e-10
9.40504137727e-11
9.76017718127e-10
2.20176480836e-10
9.9283731567e-10
2.8859413436e-10
9.98569138951e-10
3.14900950529e-10
9.93859767666e-10
3.15150361303e-10
9.81131671441e-10
3.00988947112e-10
9.62936127883e-10
2.79720088512e-10
9.41411684609e-10
2.55612371516e-10
9.18192847621e-10
2.31054595755e-10
8.94467392388e-10
2.07325481363e-10
8.71067435268e-10
1.85061332642e-10
8.48555698903e-10
1.64531136914e-10
8.27296613579e-10
1.45796947269e-10
8.07511614027e-10
1.28807355102e-10
7.89320896795e-10
1.13452017123e-10
7.7277440999e-10
9.95933849562e-11
7.57874578544e-10
8.70849864764e-11
7.44592809197e-10
7.578172187e-11
7.32881370159e-10
6.55454029106e-11
7.22681860167e-10
5.62474639787e-11
7.13931178718e-10
4.77700070297e-11
7.06565675483e-10
4.00058850065e-11
7.00523979544e-10
3.28582518329e-11
6.95748876261e-10
2.6239838745e-11
6.92188500583e-10
2.00721136424e-11
6.89797042308e-10
1.42844168544e-11
6.88535104565e-10
8.81312808072e-12
6.88369816701e-10
3.60089581544e-12
6.89274773144e-10
-1.40405330352e-12
6.91229843962e-10
-6.24850904749e-12
6.94220894993e-10
-1.09747779268e-11
6.98239437164e-10
-1.56210960241e-11
7.03282211658e-10
-2.02219270509e-11
7.0935071356e-10
-2.48081502067e-11
7.16450649464e-10
-2.94071297636e-11
7.24591318664e-10
-3.40426558251e-11
7.33784902225e-10
-3.87347427574e-11
7.44045639365e-10
-4.34992688487e-11
7.55388865824e-10
-4.83474379753e-11
7.67829884449e-10
-5.32850421366e-11
7.81382633963e-10
-5.83115032231e-11
7.96058118334e-10
-6.34186745659e-11
8.11862556608e-10
-6.85893890489e-11
8.28795212509e-10
-7.37957531272e-11
8.46845865752e-10
-7.89972075117e-11
8.65991894759e-10
-8.41384090198e-11
8.86194956002e-10
-8.91470374693e-11
9.07397272199e-10