/*--------------------------------*- C++ -*----------------------------------*\
  =========                 |
  \\      /  F ield         | OpenFOAM: The Open Source CFD Toolbox
   \\    /   O peration     | Website:  https://openfoam.org
    \\  /    A nd           | Version:  7
     \\/     M anipulation  |
\*---------------------------------------------------------------------------*/
FoamFile
{
    version     2.0;
    format      ascii;
    class       volScalarField;
    location    "4.199904e+08";
    object      K;
}
// * * * * * * * * * * * * * * * * * * * * * * * * * * * * * * * * * * * * * //

dimensions      [0 2 0 0 0 0 0];

internalField   nonuniform List<scalar> 
80
(
2.58406e-10
2.46653e-10
2.00767e-10
1.21888e-10
5.67003e-11
2.73241e-11
1.73435e-11
1.38905e-11
1.26208e-11
1.21439e-11
1.19654e-11
1.18993e-11
1.18749e-11
1.1866e-11
1.18627e-11
1.18615e-11
1.1861e-11
1.18607e-11
1.18607e-11
1.18607e-11
1.18606e-11
1.18606e-11
1.18606e-11
1.18606e-11
1.18606e-11
1.18606e-11
1.18606e-11
1.18606e-11
1.18606e-11
1.18606e-11
1.18606e-11
1.18606e-11
1.18606e-11
1.18606e-11
1.18606e-11
1.18605e-11
1.18605e-11
1.18605e-11
1.18605e-11
1.18605e-11
1.18605e-11
1.18605e-11
1.18605e-11
1.18605e-11
1.18605e-11
1.18605e-11
1.18605e-11
1.18605e-11
1.18605e-11
1.18605e-11
1.18605e-11
1.18605e-11
1.18605e-11
1.18605e-11
1.18605e-11
1.18605e-11
1.18605e-11
1.18605e-11
1.18605e-11
1.18605e-11
1.18605e-11
1.18605e-11
1.18605e-11
1.18605e-11
1.18605e-11
1.18605e-11
1.18605e-11
1.18605e-11
1.18605e-11
1.18605e-11
1.18605e-11
1.18605e-11
1.18605e-11
1.18605e-11
1.18605e-11
1.18605e-11
1.18604e-11
1.18604e-11
1.18604e-11
1.18604e-11
)
;

boundaryField
{
    outlet
    {
        type            zeroGradient;
    }
    inlet
    {
        type            zeroGradient;
    }
    frontAndBack
    {
        type            empty;
    }
}


// ************************************************************************* //
