/*--------------------------------*- C++ -*----------------------------------*\
  =========                 |
  \\      /  F ield         | OpenFOAM: The Open Source CFD Toolbox
   \\    /   O peration     | Website:  https://openfoam.org
    \\  /    A nd           | Version:  7
     \\/     M anipulation  |
\*---------------------------------------------------------------------------*/
FoamFile
{
    version     2.0;
    format      ascii;
    class       volScalarField;
    location    "2880";
    object      Ci;
}
// * * * * * * * * * * * * * * * * * * * * * * * * * * * * * * * * * * * * * //

dimensions      [0 -3 0 0 1 0 0];

internalField   nonuniform List<scalar> 
8192
(
10.0000000154
9.99999994665
9.99999984576
9.99999971734
9.99999955895
9.99999937381
9.99999916464
9.99999893343
9.9999986819
9.99999841212
9.99999812611
9.99999782622
9.99999751454
9.99999719343
9.99999686479
9.99999653088
9.99999619342
9.99999585457
9.99999551583
9.99999517926
9.99999484609
9.99999451817
9.99999419634
9.99999388207
9.99999357557
9.99999327768
9.99999298772
9.99999270561
9.99999242949
9.99999215813
9.99999188823
9.99999161724
9.99999134041
9.99999105389
9.99999075166
9.99999042891
9.9999900789
9.99998969656
9.99998927542
9.9999888112
9.9999882989
9.99998773636
9.99998712149
9.9999864555
9.99998574041
9.99998498157
9.99998418564
9.99998336205
9.99998252169
9.99998167711
9.99998084219
9.99998003108
9.99997925919
9.99997854082
9.99997789172
9.99997732529
9.99997685676
9.99997649779
9.99997626221
9.99997615896
9.99997619926
9.99997638813
9.99997673271
9.99997723265
9.99997788935
9.99997869572
9.9999796462
9.99998072662
9.99998192466
9.99998322023
9.99998459562
9.99998602667
9.99998749202
9.99998896551
9.99999042438
9.99999184345
9.99999320189
9.99999447902
9.9999956592
9.99999672893
9.99999767964
9.99999850605
9.99999920697
9.99999978486
10.000000245
10.000000596
10.0000008477
10.000001013
10.0000011039
10.0000011347
10.0000011182
10.0000010688
10.0000009974
10.000000915
10.0000008289
10.000000747
10.0000006734
10.0000006129
10.0000005667
10.0000005368
10.0000005224
10.0000005236
10.0000005381
10.0000005647
10.0000006006
10.0000006441
10.0000006923
10.0000007435
10.0000007951
10.0000008458
10.0000008935
10.0000009376
10.0000009764
10.0000010099
10.0000010371
10.0000010584
10.0000010732
10.0000010821
10.0000010847
10.0000010811
10.0000010701
10.0000010506
10.0000010202
10.0000009771
10.0000009202
10.0000008532
10.000000787
10.0000007399
9.99999999144
9.99999990612
9.9999998119
9.99999970419
9.99999957434
9.99999941978
9.99999924004
9.99999903605
9.99999880943
9.99999856244
9.99999829736
9.99999801673
9.99999772285
9.99999741818
9.99999710482
9.99999678511
9.99999646093
9.99999613449
9.99999580747
9.99999548192
9.99999515931
9.99999484147
9.99999452949
9.99999422485
9.99999392807
9.99999364004
9.99999336046
9.99999308938
9.99999282542
9.99999256752
9.99999231303
9.99999205962
9.99999180326
9.9999915404
9.9999912658
9.99999097493
9.99999066188
9.99999032176
9.99998994886
9.99998953887
9.99998908731
9.99998859166
9.99998804998
9.9999874627
9.99998683147
9.99998616034
9.99998545502
9.99998472315
9.99998397409
9.99998321821
9.99998246746
9.99998173364
9.99998102995
9.99998036843
9.99997976249
9.99997922355
9.99997876459
9.99997839581
9.9999781291
9.99997797284
9.99997793698
9.99997802723
9.99997825049
9.99997860861
9.999979104
9.99997973334
9.99998049335
9.99998137487
9.99998236875
9.99998346044
9.99998463567
9.99998587558
9.99998716193
9.99998847299
9.99998978832
9.99999108567
9.99999234518
9.9999935472
9.99999467547
9.99999571564
9.99999665726
9.99999749279
9.99999821844
9.99999883373
9.99999934121
9.99999974655
10.0000000573
10.0000002834
10.0000004356
10.0000005258
10.0000005655
10.0000005698
10.0000005482
10.0000005103
10.0000004638
10.0000004161
10.0000003721
10.0000003364
10.0000003112
10.0000002987
10.0000002989
10.000000312
10.0000003366
10.0000003716
10.0000004148
10.0000004648
10.0000005189
10.0000005756
10.0000006326
10.0000006887
10.0000007419
10.0000007914
10.0000008359
10.000000875
10.0000009081
10.0000009352
10.000000956
10.0000009708
10.0000009793
10.0000009817
10.0000009769
10.0000009638
10.0000009403
10.0000009044
10.0000008555
10.0000007964
10.0000007359
10.000000687
9.99999999112
9.99999990314
9.99999981667
9.99999972552
9.99999962185
9.99999950195
9.99999936331
9.99999920474
9.99999902585
9.99999882739
9.99999861042
9.9999983768
9.99999812824
9.99999786703
9.99999759505
9.99999731474
9.9999970279
9.99999673694
9.99999644354
9.99999615005
9.99999585792
9.99999556939
9.99999528559
9.99999500851
9.99999473884
9.99999447814
9.99999422642
9.99999398462
9.99999375186
9.9999935282
9.99999331167
9.99999310131
9.99999289397
9.99999268758
9.99999247789
9.99999226191
9.99999203459
9.99999179243
9.99999153025
9.99999124468
9.9999909313
9.99999058772
9.99999021126
9.99998980141
9.99998935813
9.99998888331
9.99998837999
9.99998785249
9.99998730672
9.99998674883
9.99998618683
9.99998562774
9.99998508076
9.9999845529
9.99998405385
9.99998359014
9.99998317164
9.99998280426
9.99998249786
9.99998225766
9.99998209323
9.99998200885
9.99998201314
9.99998210882
9.99998230245
9.99998259412
9.99998298701
9.99998347763
9.99998406496
9.99998474157
9.999985502
9.99998633506
9.99998723092
9.99998817503
9.99998915388
9.99999015078
9.99999115027
9.99999213568
9.99999309202
9.99999400498
9.9999948623
9.99999565398
9.99999637208
9.99999701198
9.99999757079
9.99999804937
9.99999844959
9.99999877691
9.99999903678
9.99999923772
9.999999387
9.999999495
9.99999956964
9.99999962022
9.99999965323
9.99999967625
9.99999969383
9.99999971137
9.99999973132
9.99999975694
9.99999978879
9.99999982833
9.99999987471
9.99999992811
9.99999998679
10.0000000502
10.0000001162
10.000000184
10.0000002515
10.0000003179
10.0000003814
10.0000004415
10.0000004968
10.0000005472
10.0000005917
10.0000006307
10.0000006635
10.0000006907
10.000000712
10.0000007276
10.0000007368
10.000000739
10.0000007321
10.0000007143
10.0000006851
10.0000006465
10.0000006064
10.0000005603
9.99999999165
9.9999999048
9.99999982217
9.99999974067
9.99999965297
9.99999955556
9.99999944594
9.99999932251
9.99999918425
9.99999903088
9.9999988625
9.99999867979
9.99999848363
9.99999827539
9.99999805645
9.99999782857
9.99999759342
9.99999735295
9.99999710894
9.99999686343
9.99999661815
9.99999637513
9.99999613597
9.99999590256
9.99999567622
9.99999545853
9.99999525039
9.99999505288
9.99999486627
9.99999469095
9.99999452635
9.99999437198
9.99999422634
9.99999408794
9.99999395433
9.99999382305
9.99999369086
9.99999355459
9.99999341058
9.99999325542
9.99999308561
9.99999289813
9.99999269038
9.99999246043
9.99999220724
9.99999193051
9.99999163118
9.99999131072
9.999990972
9.99999061799
9.99999025298
9.99998988085
9.99998950666
9.99998913464
9.9999887702
9.99998841769
9.9999880827
9.99998776976
9.99998748464
9.99998723206
9.99998701788
9.99998684683
9.99998672453
9.99998665529
9.99998664379
9.99998669309
9.99998680613
9.99998698394
9.99998722724
9.99998753481
9.99998790501
9.99998833424
9.99998881833
9.99998935107
9.99998992563
9.9999905334
9.9999911655
9.99999181189
9.99999246282
9.99999310811
9.99999373842
9.99999434482
9.99999491964
9.99999545643
9.99999595028
9.999996398
9.99999679796
9.99999715036
9.99999745661
9.99999771973
9.99999794332
9.99999813225
9.99999829137
9.99999842619
9.9999985415
9.99999864233
9.99999873261
9.99999881627
9.99999889598
9.99999897433
9.99999905267
9.99999913235
9.99999921358
9.9999992967
9.99999938114
9.99999946659
9.99999955204
9.99999963686
9.9999997199
9.9999998005
9.99999987761
9.9999999507
10.000000019
10.0000000822
10.0000001398
10.000000192
10.0000002384
10.0000002795
10.0000003152
10.0000003458
10.0000003712
10.0000003909
10.0000004039
10.0000004085
10.0000004045
10.0000003914
10.0000003819
10.0000003436
9.99999999145
9.99999990489
9.99999982426
9.99999974712
9.99999966741
9.99999958218
9.99999948926
9.99999938725
9.99999927517
9.99999915258
9.99999901922
9.99999887532
9.99999872117
9.99999855753
9.99999838518
9.99999820532
9.99999801908
9.99999782801
9.9999976335
9.9999974373
9.99999724095
9.99999704632
9.99999685494
9.99999666868
9.99999648898
9.99999631751
9.99999615546
9.99999600417
9.99999586438
9.99999573689
9.99999562181
9.99999551922
9.99999542846
9.99999534872
9.9999952785
9.99999521608
9.99999515912
9.99999510514
9.99999505119
9.99999499428
9.99999493127
9.99999485916
9.99999477515
9.99999467678
9.99999456219
9.99999442995
9.99999427959
9.99999411097
9.99999392511
9.9999937231
9.99999350718
9.99999327932
9.99999304261
9.99999279953
9.99999255375
9.99999230812
9.99999206677
9.99999183294
9.99999161115
9.99999140486
9.99999121868
9.99999105595
9.99999092091
9.99999081629
9.99999074533
9.99999070959
9.99999071083
9.99999074914
9.99999082485
9.99999093694
9.99999108471
9.99999126635
9.99999148026
9.9999917238
9.99999199432
9.99999228833
9.99999260231
9.99999293223
9.99999327398
9.99999362324
9.99999397555
9.99999432655
9.99999467185
9.99999500757
9.99999532999
9.99999563636
9.99999592425
9.99999619243
9.99999644003
9.99999666742
9.99999687512
9.99999706476
9.99999723784
9.9999973967
9.99999754327
9.99999768
9.99999780868
9.99999793142
9.99999804952
9.99999816449
9.999998277
9.99999838789
9.99999849726
9.99999860535
9.99999871183
9.99999881655
9.99999891891
9.99999901856
9.99999911483
9.99999920734
9.9999992955
9.99999937903
9.99999945751
9.99999953087
9.9999995989
9.99999966177
9.99999971951
9.99999977247
9.99999982089
9.99999986511
9.99999990534
9.99999994138
9.99999997315
9.99999999862
10.0000000196
10.0000000307
10.0000000535
10.0000000349
9.99999999087
9.9999999051
9.99999982532
9.99999975063
9.99999967537
9.99999959696
9.99999951359
9.99999942414
9.9999993279
9.99999922449
9.99999911371
9.99999899563
9.99999887041
9.99999873848
9.99999860034
9.99999845678
9.99999830862
9.99999815696
9.99999800291
9.99999784783
9.99999769303
9.99999754004
9.99999739029
9.99999724539
9.99999710678
9.99999697596
9.9999968543
9.99999674301
9.9999966432
9.99999655562
9.99999648096
9.99999641927
9.9999963707
9.99999633441
9.99999630989
9.99999629533
9.99999628948
9.99999628967
9.99999629396
9.99999629907
9.99999630258
9.99999630105
9.99999629197
9.99999627223
9.99999623981
9.99999619244
9.99999612906
9.99999604856
9.99999595114
9.99999583693
9.99999570729
9.99999556345
9.99999540767
9.99999524209
9.99999506969
9.99999489349
9.99999471711
9.99999454442
9.99999437945
9.99999422653
9.99999408949
9.9999939723
9.99999387777
9.99999380864
9.99999376588
9.99999375022
9.99999376048
9.99999379534
9.99999385205
9.99999392812
9.99999402033
9.99999412596
9.99999424205
9.99999436599
9.99999449533
9.99999462786
9.99999476206
9.99999489659
9.99999503096
9.99999516457
9.99999529747
9.99999542931
9.99999556019
9.99999568968
9.99999581777
9.99999594403
9.99999606841
9.99999619063
9.9999963108
9.99999642889
9.9999965452
9.99999665997
9.99999677358
9.99999688643
9.9999969989
9.99999711135
9.99999722401
9.9999973371
9.99999745059
9.99999756448
9.9999976785
9.99999779239
9.99999790568
9.99999801797
9.99999812864
9.99999823723
9.99999834312
9.99999844588
9.99999854495
9.99999864004
9.99999873076
9.99999881696
9.99999889846
9.99999897532
9.99999904758
9.9999991155
9.99999917933
9.99999923949
9.99999929642
9.99999935048
9.99999940229
9.99999945144
9.99999949907
9.99999954181
9.9999995849
9.99999961619
9.99999966771
9.99999967254
9.99999999124
9.99999990654
9.99999982749
9.99999975392
9.99999968093
9.99999960626
9.99999952838
9.99999944639
9.99999935972
9.99999926815
9.99999917152
9.99999906991
9.99999896344
9.99999885243
9.99999873725
9.99999861847
9.99999849673
9.99999837287
9.99999824778
9.99999812251
9.99999799819
9.99999787602
9.99999775732
9.99999764337
9.99999753558
9.99999743514
9.99999734354
9.99999726165
9.99999719096
9.99999713173
9.99999708543
9.99999705139
9.99999703098
9.99999702235
9.99999702668
9.99999704086
9.99999706565
9.99999709688
9.99999713466
9.99999717426
9.9999972149
9.99999725198
9.99999728393
9.9999973069
9.99999731899
9.99999731749
9.99999730093
9.99999726789
9.9999972179
9.99999715083
9.9999970674
9.99999696867
9.99999685643
9.99999673283
9.99999660067
9.99999646323
9.99999632439
9.99999618851
9.9999960603
9.99999594466
9.99999584627
9.99999576944
9.99999571752
9.99999569292
9.99999569649
9.99999572778
9.99999578469
9.99999586402
9.9999959616
9.99999607276
9.99999619263
9.99999631637
9.99999643941
9.99999655736
9.99999666643
9.99999676339
9.99999684605
9.99999691315
9.99999696454
9.99999700087
9.99999702354
9.99999703439
9.99999703563
9.99999702961
9.99999701871
9.9999970053
9.99999699157
9.9999969796
9.9999969712
9.99999696799
9.99999697123
9.99999698198
9.99999700092
9.9999970285
9.99999706482
9.99999710981
9.99999716304
9.99999722401
9.99999729192
9.99999736593
9.99999744504
9.99999752825
9.99999761447
9.99999770269
9.99999779188
9.99999788114
9.99999796961
9.99999805659
9.99999814144
9.99999822372
9.99999830308
9.99999837933
9.99999845238
9.99999852229
9.99999858925
9.99999865351
9.99999871551
9.99999877558
9.99999883445
9.9999988922
9.9999989501
9.99999900685
9.99999906546
9.99999911971
9.99999918018
9.99999922587
9.99999930076
9.99999932429
9.99999999137
9.99999990797
9.99999983021
9.9999997579
9.99999968651
9.99999961412
9.99999953949
9.99999946192
9.99999938104
9.99999929672
9.99999920893
9.99999911773
9.99999902323
9.99999892571
9.99999882548
9.99999872298
9.99999861875
9.99999851346
9.99999840785
9.99999830278
9.99999819923
9.99999809815
9.9999980008
9.99999790808
9.99999782158
9.99999774186
9.99999767098
9.99999760876
9.99999755795
9.99999751704
9.9999974898
9.99999747264
9.99999747082
9.9999974779
9.99999750087
9.99999753019
9.9999975743
9.99999762104
9.99999767929
9.99999773585
9.9999977983
9.99999785466
9.9999979097
9.99999795446
9.99999799066
9.99999801282
9.99999802086
9.99999801213
9.99999798642
9.99999794299
9.99999788252
9.99999780566
9.99999771415
9.99999760997
9.99999749596
9.99999737566
9.99999725318
9.99999713384
9.99999702287
9.99999692676
9.9999968508
9.9999968011
9.9999967812
9.99999679482
9.9999968421
9.9999969229
9.99999703335
9.99999716967
9.99999732542
9.999997495
9.99999767141
9.99999784874
9.99999802064
9.99999818149
9.99999832596
9.99999844947
9.99999854881
9.99999862165
9.99999866749
9.99999868637
9.99999868006
9.99999865036
9.99999860045
9.99999853321
9.99999845257
9.99999836189
9.9999982652
9.99999816583
9.99999806741
9.99999797278
9.99999788479
9.99999780546
9.99999773666
9.99999767948
9.99999763476
9.99999760269
9.99999758323
9.99999757587
9.99999757987
9.99999759424
9.99999761784
9.99999764943
9.99999768772
9.99999773144
9.99999777936
9.99999783037
9.99999788342
9.99999793768
9.99999799239
9.99999804705
9.99999810123
9.99999815472
9.99999820742
9.99999825942
9.99999831089
9.9999983621
9.99999841354
9.99999846543
9.99999851873
9.99999857304
9.99999863045
9.99999868818
9.99999875181
9.99999881081
9.99999888272
9.99999893534
9.99999902777
9.99999906031
9.9999999917
9.99999990895
9.99999983136
9.99999975973
9.99999968948
9.99999961872
9.99999954632
9.99999947171
9.99999939463
9.99999931503
9.99999923295
9.99999914846
9.99999906171
9.99999897289
9.99999888232
9.99999879034
9.99999869744
9.99999860411
9.99999851111
9.99999841898
9.99999832883
9.99999824114
9.9999981575
9.99999807799
9.99999800507
9.99999793775
9.99999788005
9.99999782885
9.99999779081
9.99999775896
9.99999774442
9.99999773397
9.99999774543
9.99999775671
9.99999779443
9.99999782578
9.99999788677
9.99999793452
9.99999801184
9.99999807037
9.99999815337
9.99999821507
9.99999829096
9.99999834615
9.99999840274
9.99999844046
9.99999846856
9.99999847884
9.99999847328
9.99999845014
9.99999840966
9.99999835255
9.9999982798
9.99999819339
9.99999809562
9.99999799005
9.99999788077
9.99999777332
9.99999767374
9.99999758915
9.99999752633
9.99999749212
9.99999749168
9.99999752881
9.99999760458
9.99999771782
9.9999978647
9.99999803976
9.99999823635
9.99999844737
9.99999866573
9.99999888451
9.9999990973
9.9999992978
9.99999948039
9.99999963994
9.99999977264
9.99999987565
9.9999999476
9.99999998804
9.99999999763
9.99999997778
9.99999993071
9.99999985917
9.99999976653
9.99999965649
9.99999953302
9.99999940016
9.99999926192
9.99999912208
9.9999989841
9.99999885105
9.99999872546
9.99999860939
9.99999850432
9.99999841122
9.99999833059
9.99999826249
9.9999982066
9.9999981623
9.99999812876
9.99999810497
9.99999808983
9.99999808221
9.99999808101
9.99999808518
9.99999809381
9.99999810607
9.99999812132
9.99999813906
9.99999815896
9.99999818081
9.99999820461
9.9999982304
9.99999825848
9.99999828899
9.9999983226
9.99999835921
9.99999840018
9.9999984443
9.99999849482
9.99999854678
9.99999860906
9.99999866565
9.99999874234
9.99999879411
9.99999889736
9.99999892873
9.99999999208
9.99999990978
9.9999998332
9.99999976204
9.99999969223
9.99999962218
9.99999955093
9.999999478
9.99999940322
9.99999932656
9.99999924809
9.99999916791
9.99999908615
9.99999900296
9.99999891864
9.99999883344
9.99999874786
9.99999866218
9.99999857729
9.99999849332
9.99999841176
9.99999833225
9.99999825743
9.99999818556
9.99999812157
9.99999806068
9.99999801219
9.99999796532
9.99999793742
9.99999790669
9.99999790455
9.99999789059
9.99999791873
9.99999792033
9.99999798139
9.99999799583
9.99999808864
9.99999811278
9.99999823016
9.99999826177
9.9999983895
9.99999842734
9.99999854636
9.99999858789
9.99999868017
9.99999871804
9.99999877286
9.99999879478
9.99999881
9.99999880402
9.99999878199
9.99999874255
9.99999868653
9.99999861543
9.99999853094
9.9999984364
9.99999833552
9.99999823449
9.99999813974
9.99999806037
9.99999800422
9.99999798093
9.99999799646
9.9999980569
9.99999816245
9.99999831238
9.99999850002
9.99999871891
9.99999895931
9.9999992133
9.99999947171
9.99999972754
9.99999997359
10.0000002041
10.0000004131
10.0000005976
10.0000007537
10.0000008784
10.0000009707
10.0000010295
10.0000010556
10.0000010498
10.0000010136
10.0000009502
10.0000008633
10.0000007555
10.0000006308
10.0000004924
10.0000003446
10.0000001908
10.0000000348
9.99999987942
9.9999997278
9.99999958204
9.99999944414
9.99999931532
9.99999919658
9.99999908827
9.99999899057
9.9999989032
9.99999882574
9.99999875751
9.9999986978
9.99999864579
9.99999860069
9.99999856175
9.9999985283
9.99999849979
9.9999984758
9.99999845604
9.99999844035
9.99999842871
9.99999842125
9.99999841811
9.99999841971
9.99999842616
9.99999843828
9.99999845573
9.99999848023
9.99999850973
9.99999854864
9.99999858978
9.99999864528
9.99999869367
9.99999876865
9.99999881303
9.99999891938
9.99999894206
9.99999999202
9.99999990929
9.99999983162
9.99999976037
9.9999996909
9.99999962146
9.99999955113
9.99999947945
9.9999994063
9.99999933167
9.99999925566
9.99999917834
9.99999909987
9.99999902035
9.99999894009
9.99999885918
9.99999877828
9.99999869729
9.99999861751
9.99999853825
9.9999984621
9.99999838684
9.99999831768
9.99999824892
9.99999819113
9.99999813117
9.99999809035
9.99999804058
9.99999802378
9.99999798369
9.99999799959
9.99999796578
9.99999802446
9.99999799017
9.9999981016
9.99999805792
9.99999822822
9.99999816797
9.99999839321
9.9999983171
9.99999857669
9.99999849792
9.99999875407
9.99999869469
9.99999890417
9.99999888021
9.99999901553
9.99999902121
9.99999908367
9.99999909315
9.99999910232
9.99999909005
9.9999990615
9.99999901716
9.999998957
9.99999888377
9.9999988001
9.9999987122
9.99999862721
9.99999855472
9.99999850519
9.99999848958
9.99999851701
9.99999859398
9.99999872225
9.99999889895
9.99999911669
9.99999936555
9.99999963477
9.99999991397
10.0000001937
10.0000004663
10.0000007247
10.0000009663
10.0000011857
10.0000013786
10.0000015423
10.0000016748
10.0000017756
10.0000018446
10.0000018821
10.0000018889
10.0000018663
10.0000018159
10.0000017404
10.0000016422
10.0000015253
10.000001394
10.0000012515
10.000001101
10.0000009456
10.0000007882
10.0000006313
10.0000004771
10.0000003275
10.0000001839
10.0000000472
9.99999991819
9.99999979703
9.99999968386
9.99999957846
9.99999948054
9.99999938966
9.99999930537
9.99999922719
9.99999915473
9.99999908763
9.99999902567
9.99999896871
9.99999891675
9.9999988699
9.99999882835
9.99999879243
9.99999876244
9.99999873895
9.9999987221
9.99999871285
9.99999871066
9.99999871758
9.99999873084
9.99999875578
9.99999878341
9.99999882831
9.99999886494
9.99999893254
9.99999896567
9.99999906702
9.99999907764
9.99999999258
9.99999990934
9.9999998321
9.99999976017
9.99999968983
9.99999961977
9.9999995492
9.99999947771
9.99999940516
9.99999933151
9.99999925685
9.99999918119
9.99999910473
9.9999990274
9.99999894967
9.99999887131
9.99999879332
9.99999871495
9.99999863839
9.99999856144
9.99999848883
9.99999841499
9.99999834999
9.9999982808
9.99999822871
9.99999816481
9.99999813324
9.99999807302
9.99999807316
9.99999801072
9.99999805886
9.99999798148
9.99999810048
9.99999798663
9.99999820562
9.99999802593
9.99999837509
9.99999810017
9.99999859692
9.99999821492
9.99999884161
9.99999838126
9.99999906556
9.99999860669
9.99999922924
9.99999887553
9.99999932324
9.99999913702
9.99999937404
9.99999932681
9.99999940872
9.99999941225
9.99999941758
9.99999940309
9.99999936869
9.9999993175
9.99999925063
9.99999917363
9.99999909311
9.99999902222
9.99999897366
9.99999896345
9.99999900309
9.99999910382
9.99999926649
9.99999948849
9.99999975641
10.0000000575
10.0000003746
10.000000696
10.000001008
10.0000013037
10.0000015787
10.0000018276
10.0000020463
10.0000022314
10.0000023825
10.0000024993
10.0000025837
10.0000026367
10.0000026605
10.0000026559
10.0000026252
10.0000025691
10.0000024904
10.000002391
10.000002274
10.0000021424
10.0000019997
10.0000018501
10.0000016964
10.0000015407
10.0000013851
10.0000012313
10.0000010806
10.0000009341
10.0000007927
10.0000006566
10.0000005262
10.0000004015
10.0000002823
10.0000001686
10.00000006
9.99999995628
9.99999985724
9.99999976272
9.99999967267
9.99999958714
9.99999950629
9.99999943039
9.9999993598
9.99999929498
9.99999923644
9.99999918467
9.99999914037
9.99999910379
9.99999907594
9.99999905625
9.99999904684
9.99999904467
9.9999990553
9.99999906907
9.99999910124
9.99999912498
9.9999991808
9.99999920161
9.99999929045
9.99999928954
9.9999999921
9.99999990746
9.99999982791
9.99999975507
9.99999968419
9.99999961376
9.999999543
9.99999947153
9.99999939926
9.99999932612
9.99999925221
9.99999917746
9.99999910215
9.999999026
9.99999894973
9.99999887262
9.99999879632
9.99999871899
9.99999864432
9.99999856776
9.99999849741
9.99999842257
9.9999983608
9.99999828795
9.99999824149
9.99999816889
9.99999814858
9.99999807
9.99999809364
9.99999799425
9.999998091
9.9999979413
9.99999815762
9.99999790634
9.99999831137
9.99999788092
9.99999856534
9.99999785887
9.99999891582
9.99999784912
9.99999932464
9.99999789106
9.9999997077
9.99999805452
9.9999999555
9.99999839862
10.000000004
9.99999889371
9.99999991126
9.99999938957
9.99999982666
9.99999972179
9.99999983242
9.99999985514
9.99999986298
9.99999985558
9.9999998238
9.99999977318
9.99999971124
9.99999965097
9.99999960996
9.99999960548
9.99999965642
9.999999777
9.99999997099
10.00000023
10.0000005379
10.0000008752
10.0000012236
10.0000015675
10.0000018932
10.0000021961
10.0000024695
10.0000027083
10.0000029097
10.0000030723
10.0000031973
10.0000032868
10.000003344
10.000003372
10.0000033732
10.0000033495
10.0000033026
10.000003234
10.0000031456
10.0000030394
10.0000029177
10.0000027835
10.0000026393
10.0000024881
10.0000023331
10.0000021775
10.0000020227
10.0000018699
10.0000017199
10.0000015736
10.0000014313
10.0000012931
10.0000011591
10.0000010293
10.0000009033
10.0000007811
10.0000006623
10.000000547
10.0000004349
10.0000003261
10.0000002208
10.0000001191
10.0000000216
9.99999992861
9.9999998408
9.99999975876
9.99999968321
9.99999961478
9.99999955426
9.99999950199
9.99999945899
9.99999942474
9.99999940116
9.99999938541
9.99999938246
9.9999993833
9.99999940178
9.99999941305
9.99999945395
9.99999946315
9.99999953321
9.99999952332
9.99999999286
9.99999990698
9.99999982734
9.99999975277
9.9999996798
9.99999960748
9.99999953526
9.99999946272
9.99999938976
9.99999931622
9.99999924221
9.99999916749
9.99999909246
9.99999901655
9.99999894081
9.99999886389
9.99999878828
9.99999871078
9.99999863698
9.99999855943
9.99999849036
9.99999841299
9.99999835359
9.99999827535
9.99999823402
9.99999815059
9.99999814184
9.99999804178
9.99999809122
9.99999794893
9.99999810192
9.99999786579
9.99999820137
9.99999777611
9.99999842601
9.99999765152
9.99999881809
9.99999745676
9.99999941031
9.99999717191
10.0000001888
9.99999683887
10.0000010368
9.99999661534
10.0000017017
9.99999676589
10.000001883
9.99999748944
10.0000014882
9.99999864432
10.0000008419
9.99999972282
10.0000004423
10.0000003132
10.0000004124
10.0000004705
10.0000004694
10.0000004467
10.0000004041
10.0000003605
10.0000003202
10.0000003124
10.0000003794
10.0000005442
10.0000007943
10.0000011056
10.0000014589
10.0000018378
10.0000022328
10.0000026194
10.0000029867
10.0000033176
10.0000036011
10.0000038312
10.0000040073
10.0000041308
10.0000042078
10.000004244
10.0000042471
10.0000042219
10.0000041737
10.0000041046
10.0000040174
10.0000039129
10.0000037937
10.000003661
10.0000035176
10.0000033653
10.0000032072
10.0000030451
10.000002882
10.0000027192
10.0000025598
10.0000024042
10.0000022529
10.0000021057
10.0000019627
10.0000018236
10.0000016881
10.0000015557
10.0000014262
10.0000012992
10.0000011745
10.000001052
10.0000009315
10.0000008132
10.0000006975
10.0000005846
10.0000004752
10.0000003698
10.0000002693
10.0000001744
10.0000000859
10.0000000046
9.99999993137
9.99999986645
9.99999981111
9.99999976454
9.99999972876
9.99999970084
9.99999968529
9.99999967386
9.99999967834
9.9999996773
9.99999970123
9.9999996991
9.99999974583
9.99999972827
9.99999999201
9.99999990398
9.99999982108
9.99999974492
9.99999967069
9.99999959714
9.99999952376
9.9999994502
9.99999937641
9.99999930216
9.99999922764
9.99999915243
9.9999990771
9.99999900075
9.99999892481
9.99999884729
9.99999877152
9.999998693
9.999998619
9.99999853966
9.99999847048
9.99999839001
9.99999833097
9.99999824746
9.99999820795
9.99999811549
9.99999811236
9.99999799612
9.99999806037
9.99999788708
9.99999807651
9.99999777665
9.99999819903
9.99999763553
9.99999848753
9.99999740654
9.99999903035
9.99999699773
9.99999994111
9.99999629638
10.0000013195
9.99999523735
10.0000031391
9.99999395979
10.0000050621
9.99999298588
10.0000063358
9.99999316768
10.000006115
9.99999505434
10.0000043492
9.99999798933
10.0000022887
10.000000362
10.0000012954
10.0000013235
10.0000013289
10.0000014099
10.0000014576
10.0000014597
10.0000013825
10.0000013892
10.0000015943
10.0000018648
10.000001999
10.0000019603
10.0000018972
10.0000019925
10.0000023307
10.0000028638
10.0000034801
10.000004061
10.000004534
10.0000048752
10.0000050934
10.0000052104
10.0000052506
10.0000052352
10.0000051805
10.0000050982
10.0000049962
10.0000048792
10.0000047498
10.0000046096
10.0000044594
10.0000043003
10.0000041335
10.0000039607
10.0000037838
10.0000036049
10.0000034262
10.0000032497
10.0000030766
10.0000029092
10.0000027476
10.0000025917
10.0000024408
10.0000022947
10.0000021525
10.0000020138
10.0000018777
10.0000017439
10.0000016118
10.0000014813
10.0000013524
10.0000012249
10.0000010995
10.0000009763
10.0000008564
10.0000007398
10.0000006283
10.0000005217
10.0000004222
10.000000329
10.000000245
10.0000001681
10.0000001021
10.0000000432
9.99999999682
9.9999999557
9.99999992878
9.99999990269
9.9999998938
9.9999998763
9.99999988273
9.99999986286
9.99999988367
9.99999984927
9.99999999294
9.99999990317
9.99999981976
9.99999974103
9.99999966372
9.99999958729
9.99999951143
9.99999943577
9.99999936024
9.99999928447
9.99999920869
9.99999913228
9.99999905592
9.99999897844
9.99999890153
9.99999882276
9.99999874588
9.9999986658
9.99999859042
9.99999850906
9.99999843803
9.99999835502
9.99999829343
9.99999820701
9.99999816385
9.99999806858
9.99999806011
9.99999794217
9.99999799862
9.99999782597
9.99999800525
9.99999770769
9.99999812305
9.99999755281
9.99999842647
9.9999972838
9.99999904499
9.99999674948
10.0000001931
9.99999569537
10.0000021818
9.9999937842
10.0000053302
9.99999078224
10.0000096486
9.99998703264
10.0000142364
9.99998408243
10.0000168832
9.99998451043
10.0000151973
9.99998967007
10.0000096158
9.99999694571
10.0000042559
10.0000018232
10.0000022899
10.0000028682
10.0000029578
10.0000026873
10.0000024742
10.000003267
10.0000042455
10.0000032189
9.99999917639
9.99999337561
9.99998827913
9.99998587254
9.99998667575
9.99998989992
9.99999417909
9.99999830494
10.0000015893
10.0000038515
10.0000052246
10.0000059516
10.0000062651
10.0000063343
10.0000062675
10.0000061239
10.0000059362
10.0000057203
10.000005488
10.0000052468
10.0000050048
10.0000047669
10.0000045378
10.0000043193
10.0000041128
10.0000039178
10.0000037337
10.0000035594
10.0000033938
10.0000032357
10.0000030847
10.000002939
10.0000027973
10.0000026584
10.0000025213
10.0000023853
10.0000022497
10.000002114
10.0000019783
10.000001842
10.0000017059
10.0000015697
10.0000014347
10.0000013006
10.0000011697
10.0000010409
10.000000918
10.0000007982
10.0000006877
10.0000005804
10.0000004862
10.0000003939
10.0000003188
10.000000242
10.0000001871
10.0000001236
10.0000000882
10.0000000324
10.0000000132
9.99999995536
9.99999994662
9.9999998722
9.9999998673
9.99999976094
9.99999999179
9.99999989933
9.99999981201
9.99999973121
9.99999965208
9.99999957374
9.99999949597
9.99999941846
9.9999993412
9.99999926378
9.99999918644
9.99999910848
9.99999903062
9.99999895159
9.99999887306
9.99999879262
9.9999987138
9.99999863186
9.99999855391
9.99999847058
9.99999839586
9.99999831114
9.99999824385
9.99999815703
9.99999810444
9.99999801254
9.99999798736
9.99999788183
9.99999790715
9.99999776665
9.99999788634
9.99999766116
9.99999796254
9.99999754057
9.9999982038
9.99999733706
9.99999874132
9.99999689106
9.99999983304
9.99999586401
10.0000019668
9.99999362393
10.0000059566
9.99998921042
10.0000128281
9.99998173568
10.0000229768
9.99997181192
10.000034182
9.99996377356
10.0000400235
9.99996521656
10.0000338478
9.99997899501
10.0000186709
9.99999622011
10.000005859
10.0000060721
10.0000040603
10.0000029238
10.0000063243
10.0000127328