/*--------------------------------*- C++ -*----------------------------------*\
  =========                 |
  \\      /  F ield         | OpenFOAM: The Open Source CFD Toolbox
   \\    /   O peration     | Website:  https://openfoam.org
    \\  /    A nd           | Version:  7
     \\/     M anipulation  |
\*---------------------------------------------------------------------------*/
FoamFile
{
    version     2.0;
    format      ascii;
    class       surfaceScalarField;
    location    "2880";
    object      phi;
}
// * * * * * * * * * * * * * * * * * * * * * * * * * * * * * * * * * * * * * //

dimensions      [0 3 -1 0 0 0 0];

internalField   nonuniform List<scalar> 
16192
(
6.92941037122e-10
2.44558962878e-10
4.93599915519e-10
1.9934112615e-10
3.64864478595e-10
1.28735441359e-10
2.82262285496e-10
8.26021973002e-11
2.2759864834e-10
5.46636413424e-11
1.8993285453e-10
3.76657980353e-11
1.62924958571e-10
2.70079002604e-11
1.42864401951e-10
2.00605610207e-11
1.27518413793e-10
1.53459926688e-11
1.15495573007e-10
1.2022845409e-11
1.0589607432e-10
9.59950341747e-12
9.81167115646e-11
7.77936758485e-12
9.17394381126e-11
6.37727837602e-12
8.6465792491e-11
5.27365062803e-12
8.20770893956e-11
4.38870818128e-12
7.8409485465e-11
3.66760908384e-12
7.53378849135e-11
3.07160577091e-12
7.27652536628e-11
2.57263652379e-12
7.06153375782e-11
2.14992141193e-12
6.88275814376e-11
1.78776150942e-12
6.73535069902e-11
1.47407986015e-12
6.61540810718e-11
1.19943136236e-12
6.51977703089e-11
9.56316243669e-13
6.44590813656e-11
7.38694449489e-13
6.39174511167e-11
5.41635791353e-13
6.35563931183e-11
3.61063569517e-13
6.33628349546e-11
1.93563782884e-13
6.33265994885e-11
3.62411326923e-14
6.34399961742e-11
-1.13390939412e-13
6.36974964073e-11
-2.5749439638e-13
6.4095474086e-11
-3.9797170228e-13
6.46319971345e-11
-5.36516905147e-13
6.53066578443e-11
-6.74654329067e-13
6.61204313724e-11
-8.1376686209e-13
6.70755534002e-11
-9.55114981664e-13
6.81754078884e-11
-1.09984699101e-12
6.94244161645e-11
-1.24900020876e-12
7.08279173319e-11
-1.40349243673e-12
7.23920292883e-11
-1.56410242409e-12
7.41234774883e-11
-1.73143775791e-12
7.60293771646e-11
-1.9058881782e-12
7.81169521823e-11
-2.08756235462e-12
8.03931724276e-11
-2.27620628365e-12
8.28642901816e-11
-2.47110240533e-12
8.55352570284e-11
-2.67095001683e-12
8.84090057557e-11
-2.87373037476e-12
9.14855894068e-11
-3.07656375076e-12
9.47611820048e-11
-3.27557118135e-12
9.82269648763e-11
-3.4657600075e-12
1.01867948201e-10
-3.64095913512e-12
1.05661808976e-10
-3.79383543847e-12
1.09577860334e-10
-3.91602509348e-12
1.13576297567e-10
-3.99841032915e-12
1.17607886197e-10
-4.0315613979e-12
1.21614258179e-10
-4.00634481278e-12
1.25528957922e-10
-3.9146730261e-12
1.2927932394e-10
-3.75034022703e-12
1.32789204937e-10
-3.50985656699e-12
1.35982390987e-10
-3.19316349383e-12
1.38786504501e-10
-2.80409326176e-12
1.41136962727e-10
-2.3504407687e-12
1.42980538889e-10
-1.84356185492e-12
1.44278056534e-10
-1.29750687901e-12
1.45005883899e-10
-7.27820346747e-13
1.45156125175e-10
-1.50238225822e-13
1.4473566405e-10
4.20460204585e-13
1.4376441027e-10
9.71248883507e-13
1.42273166841e-10
1.49123477351e-12
1.40301460793e-10
1.97169383733e-12
1.3789555974e-10
2.40588568463e-12
1.35106754537e-10
2.78878704157e-12
1.31989879345e-10
3.11685475204e-12
1.28601979387e-10
3.38787769686e-12
1.25001028706e-10
3.6009271594e-12
1.21244628508e-10
3.75637589737e-12
1.17388670248e-10
3.85593371134e-12
1.13486003627e-10
3.90264225872e-12
1.09585195173e-10
3.90078471104e-12
1.05729481352e-10
3.85569102874e-12
1.01956010249e-10
3.77344955664e-12
9.82954301697e-11
3.66055998222e-12
9.47718366338e-11
3.52357503925e-12
9.14030432284e-11
3.36877659317e-12
8.82011086673e-11
3.20191945689e-12
8.51730360182e-11
3.0280592393e-12
8.23215598963e-11
2.85146433389e-12
7.96459491322e-11
2.67560051622e-12
7.7142769881e-11
2.5031704082e-12
7.48065734157e-11
2.33618890771e-12
7.26304893869e-11
2.17607759086e-12
7.06067190418e-11
2.02376489699e-12
6.87269316135e-11
1.87978280102e-12
6.69825732437e-11
1.74435444393e-12
6.53650999852e-11
1.61746988132e-12
6.38661477834e-11
1.49894927753e-12
6.24776511954e-11
1.38849399113e-12
6.1191921994e-11
1.28572686557e-12
6.00016966343e-11
1.19022319059e-12
5.89001605896e-11
1.10153400498e-12
5.7880955451e-11
1.01920316296e-12
5.69381739682e-11
9.427795588e-13
5.60663464879e-11
8.71825567124e-13
5.52604218948e-11
8.05922696586e-13
5.45157448394e-11
7.44675152558e-13
5.3828030968e-11
6.87711979807e-13
5.31933408545e-11
6.34688222085e-13
5.26080534291e-11
5.85285557357e-13
5.20688388779e-11
5.3921270169e-13
5.15726311308e-11
4.9620594088e-13
5.11165993164e-11
4.56030048791e-13
5.06981176482e-11
4.1847996616e-13
5.03147324162e-11
3.8338359043e-13
4.99641246357e-11
3.5060621884e-13
4.96440658594e-11
3.20057289249e-13
4.93523640419e-11
2.91700420331e-13
4.90867945957e-11
2.65568130785e-13
4.88450099666e-11
2.41783406027e-13
4.86244174216e-11
2.2059140366e-13
4.84220097141e-11
2.02406655605e-13
4.82341242268e-11
1.8788451381e-13
4.80560917225e-11
1.78031618056e-13
4.78817107073e-11
1.74380211958e-13
4.77024433098e-11
1.79266698943e-13
4.75061724295e-11
1.96270304146e-13
4.72753295215e-11
2.3084250341e-13
4.69845114929e-11
2.90817828915e-13
4.65997362671e-11
3.8477522003e-13
4.93641660809e-13
9.53427335682e-10
2.28631631916e-10
8.59664162388e-10
2.93104308294e-10
7.45079251934e-10
2.43320360284e-10
6.41813382845e-10
1.85868074544e-10
5.5649647332e-10
1.39980559029e-10
4.87931394052e-10
1.0623088557e-10
4.33101558983e-10
8.18377437561e-11
3.89058977693e-10
6.41031509208e-11
3.53393812095e-10
5.10111670679e-11
3.24252131981e-10
4.11645345095e-11
3.00236142543e-10
3.3615502015e-11
2.80294542958e-10
2.77209764872e-11
2.63631950044e-10
2.30398807513e-11
2.49640711216e-10
1.92648990427e-11
2.37851384505e-10
1.61780445937e-11
2.278971986e-10
1.3621804785e-11
2.19488545548e-10
1.14802687049e-11
2.12394559103e-10
9.66663291629e-12
2.06429683346e-10
8.11480717107e-12
2.01443770483e-10
6.77368441295e-12
1.97314694908e-10
5.60316550373e-12
1.93942779645e-10
4.57135670544e-12
1.91246543135e-10
3.65256284083e-12
1.89159419139e-10
2.82582853039e-12
1.87627202442e-10
2.07386257429e-12
1.86606041912e-10
1.38223418878e-12
1.86060850851e-10
7.38764957882e-13
1.85964038241e-10
1.33063899745e-13
1.86294488696e-10
-4.43831147847e-13
1.87036734799e-10
-9.99730114249e-13
1.88180279318e-10
-1.54150562006e-12
1.8971903337e-10
-2.07526005437e-12
1.91650841241e-10
-2.60645087549e-12
1.93977066277e-10
-3.13998002325e-12
1.96702214769e-10
-3.6802508817e-12
1.99833575168e-10
-4.23119390838e-12
2.03380849861e-10
-4.79626031847e-12
2.07355754893e-10
-5.37838157309e-12
2.11771561121e-10
-5.97989120335e-12
2.16642547021e-10
-6.60240442243e-12
2.21983330673e-10
-7.24665056519e-12
2.27808045437e-10
-7.91225360385e-12
2.34129322708e-10
-8.59745758263e-12
2.40957045954e-10
-9.29879706123e-12
2.48296845784e-10
-1.00107185176e-11
2.56148317091e-10
-1.07251675608e-11
2.64502959659e-10
-1.14311694231e-11
2.73341874315e-10
-1.21144462679e-11
2.82633289736e-10
-1.2757133376e-11
2.92330049417e-10
-1.33376745605e-11
3.02367250832e-10
-1.38309907802e-11
3.12660292137e-10
-1.42090189761e-11
3.23103634043e-10
-1.44417040383e-11
3.33570611811e-10
-1.44984908398e-11
3.43914618581e-10
-1.435030387e-11
3.53971915146e-10
-1.39719232794e-11
3.63566194411e-10
-1.33445754429e-11
3.72514843249e-10
-1.24584644763e-11
3.80636607976e-10
-1.13148913e-11
3.87760108903e-10
-9.92756209367e-12
3.93732409127e-10
-8.32271450414e-12
3.98426699597e-10
-6.53783208022e-12
4.01748195066e-10
-4.61898887949e-12
4.03637591357e-10
-2.61721026601e-12
4.04071867683e-10
-5.8451543882e-13
4.03062698984e-10
1.4296208428e-12
4.00653110976e-10
3.38082190857e-12
3.96913151159e-10
5.23117317283e-12
3.91935247243e-10
6.9495705148e-12
3.85829714558e-10
8.5113861004e-12
3.78720624607e-10
9.89784054688e-12
3.70742044307e-10
1.10953953878e-11
3.6203453606e-10
1.20953440162e-11
3.52741780122e-10
1.28936398911e-11
3.43007222471e-10
1.34908899758e-11
3.3297073903e-10
1.38923740872e-11
3.22765404777e-10
1.41079346968e-11
3.12514534595e-10
1.41516149802e-11
3.02329194861e-10
1.40409932526e-11
2.92306364321e-10
1.37962453737e-11
2.82527856387e-10
1.34390362255e-11
2.73060025711e-10
1.29913771935e-11
2.63954193632e-10
1.24745833425e-11
2.55247660427e-10
1.19084304639e-11
2.46965136333e-10
1.13105641288e-11
2.39120417933e-10
1.0696166322e-11
2.3171815451e-10
1.00778500833e-11
2.24755580384e-10
9.4657329591e-12
2.18224125624e-10
8.8676340919e-12
2.12110851423e-10
8.28934391886e-12
2.06399685135e-10
7.73492473947e-12
2.01072450925e-10
7.20701171594e-12
1.96109706704e-10
6.70709428309e-12
1.91491406118e-10
6.23576676886e-12
1.87197408815e-10
5.79294338282e-12
1.83207862684e-10
5.37803725467e-12
1.79503481097e-10
4.99010579242e-12
1.76065735548e-10
4.62796617329e-12
1.72876981775e-10
4.29028523759e-12
1.69920534199e-10
3.97564816272e-12
1.67180701226e-10
3.68260989488e-12
1.64642791126e-10
3.40973294321e-12
1.62293096466e-10
3.15561455453e-12
1.60118862862e-10
2.9189058745e-12
1.5810824671e-10
2.69832519554e-12
1.56250264863e-10
2.49266709304e-12
1.54534738534e-10
2.30080890199e-12
1.52952232427e-10
2.12171583405e-12
1.5149398959e-10
1.95444584846e-12
1.50151861382e-10
1.79815538823e-12
1.48918231497e-10
1.65210707261e-12
1.47785931808e-10
1.51568060203e-12
1.46748147161e-10
1.388388313e-12
1.45798304811e-10
1.26989721634e-12
1.4492994312e-10
1.16005983187e-12
1.4413655221e-10
1.05895690282e-12
1.43411377592e-10
9.669560373e-13
1.4274717548e-10
8.84791675037e-13
1.42135907123e-10
8.13673325659e-13
1.41568359572e-10
7.55430531444e-13
1.41033686953e-10
7.12702876731e-13
1.40518889022e-10
6.89176976606e-13
1.40008310056e-10
6.89844735207e-13
1.39483417177e-10
7.21162527783e-13
1.3892358255e-10
7.90676779367e-13
1.38309736431e-10
9.04663888546e-13
1.37636434726e-10
1.05807706499e-12
1.19808853784e-12
9.76225090053e-10
1.89906546295e-10
9.6293599246e-10
3.06393414421e-10
9.05919394009e-10
3.00336966842e-10
8.33332885233e-10
2.5845459118e-10
7.60174215029e-10
2.1313923711e-10
6.92861868837e-10
1.73543239738e-10
6.33474927765e-10
1.41224692949e-10
5.82125678827e-10
1.15452408143e-10
5.38137612051e-10
9.49992422975e-11
5.00594273494e-10
7.87078816784e-11
4.68577747083e-10
6.56320371868e-11
4.41260470399e-10
5.50382620629e-11
4.17930760387e-10
4.63695997763e-11
3.97990354981e-10
3.92053135616e-11
3.8094167868e-10
3.32267301006e-11
3.66372673178e-10
2.81908195637e-11
3.53942408364e-10
2.39105428571e-11
3.43368581549e-10
2.02404691069e-11
3.34417097662e-10
1.70663004634e-11
3.268935607e-10
1.42972307838e-11
3.20636393333e-10
1.18603422746e-11
3.1551129342e-10
9.69646599023e-12
3.11406768368e-10
7.7570972282e-12
3.0823053065e-10
6.00207552254e-12
3.05906579282e-10
4.39782315857e-12
3.04372827303e-10
2.91599530893e-12
3.03579164554e-10
1.53243679052e-12
3.03485867549e-10
2.2636992609e-13
3.04062286284e-10
-1.020240881e-12
3.05285749453e-10
-2.22318428287e-12
3.0714064311e-10
-3.39639020657e-12
3.09617623024e-10
-4.55223077579e-12
3.12712925571e-10
-5.70174399581e-12
3.16427745159e-10
-6.85478986175e-12
3.20767648259e-10
-8.02014375116e-12
3.25741993704e-10
-9.20552850853e-12
3.31363328493e-10
-1.04175834476e-11
3.37646725712e-10
-1.16617661424e-11
3.4460902903e-10
-1.29421806504e-11
3.52267964536e-10
-1.42613246332e-11
3.60641078252e-10
-1.56197473206e-11
3.69744455186e-10
-1.70156117135e-11
3.79591176384e-10
-1.84441578769e-11
3.90189473838e-10
-1.98970713763e-11
4.01540553122e-10
-2.13617722884e-11
4.13636071045e-10
-2.28206575257e-11
4.26455284507e-10
-2.42503524683e-11
4.39961928309e-10
-2.56210572537e-11
4.54100935805e-10
-2.68961058009e-11
4.68795185565e-10
-2.80318872123e-11
4.83942534845e-10
-2.89783012376e-11
4.99413477431e-10
-2.96799214082e-11
5.15049824095e-10
-3.00780097245e-11
5.30664831194e-10
-3.01134566727e-11
5.46045176645e-10
-2.97306084424e-11
5.60955089969e-10
-2.88817967762e-11
5.75142774738e-10
-2.75322222339e-11
5.88349023626e-10
-2.56646779653e-11
6.00317627715e-10
-2.32834634046e-11
6.10806855667e-10
-2.04167621681e-11
6.1960097514e-10
-1.71168109539e-11
6.26520603666e-10
-1.34574429669e-11
6.31430710255e-10
-9.52908373663e-12
6.34245412743e-10
-5.43190716887e-12
6.34929275039e-10
-1.26837849101e-12
6.33495434266e-10
2.86345464697e-12
6.30001361961e-10
6.87488121863e-12
6.24543242177e-10
1.06892744227e-11
6.17249823519e-10
1.42429656152e-11
6.08276335959e-10
1.74848458379e-11
5.97798755923e-10
2.03753892308e-11
5.86008457544e-10
2.28856597829e-11
5.73107143457e-10
2.49966223223e-11
5.59301913208e-10
2.66988334678e-11
5.44800375985e-10
2.79923904353e-11
5.29805819169e-10
2.88868948393e-11
5.14512561886e-10
2.94011572609e-11
4.99101716843e-10
2.95624272176e-11
4.83737620364e-10
2.94050592616e-11
4.68565160732e-10
2.89686771827e-11
4.53708147711e-10
2.82960242581e-11
4.39268750431e-10
2.74307523962e-11
4.25327917547e-10
2.64153970516e-11
4.11946607954e-10
2.52897236783e-11
3.99167613934e-10
2.40895444183e-11
3.87017750365e-10
2.28460185783e-11
3.75510205123e-10
2.15853862031e-11
3.64646884064e-10
2.0329046793e-11
3.54420629321e-10
1.90938832509e-11
3.44817232268e-10
1.78927367278e-11
3.35817199688e-10
1.67349541714e-11
3.27397259366e-10
1.56269497139e-11
3.19531611764e-10
1.45727401845e-11
3.12192946481e-10
1.3574430753e-11
3.05353249659e-10
1.26326391653e-11
2.98984430591e-10
1.17468553785e-11
2.93058796291e-10
1.091573916e-11
2.87549400277e-10
1.01373611615e-11
2.82430289661e-10
9.40939470162e-12
2.77676670811e-10
8.72926567564e-12
2.73265011254e-10
8.09426793614e-12
2.69173091829e-10
7.50165065289e-12
2.6538002095e-10
6.94868354965e-12
2.61866219855e-10
6.43270491798e-12
2.58613386162e-10
5.95115671379e-12
2.55604440754e-10
5.50161021772e-12
2.52823461966e-10
5.08178534717e-12
2.50255609267e-10
4.68956614508e-12
2.47887037914e-10
4.32301481584e-12
2.45704804552e-10
3.98038638189e-12
2.43696763198e-10
3.66014611451e-12
2.418514497e-10
3.36099185123e-12
2.40157952241e-10
3.08188361945e-12
2.38605764221e-10
2.82208318163e-12
2.37184615511e-10
2.58120660508e-12
2.35884277332e-10
2.35929325864e-12
2.34694336695e-10
2.15689497819e-12
2.33603938031e-10
1.97518876253e-12
2.3260149514e-10
1.81611477058e-12
2.31674388052e-10
1.68253629805e-12
2.30808684008e-10
1.5784057501e-12
2.2998897021e-10
1.50888977316e-12
2.29198480833e-10
1.4803333384e-12
2.28419878455e-10
1.49976440986e-12
2.27637356049e-10
1.57319898773e-12
2.26841194505e-10
1.70082547408e-12
2.26035096606e-10
1.86417513532e-12
1.99540769397e-12
9.7172940741e-10
1.55677143176e-10
9.86511257199e-10
2.91611572922e-10
9.67772280278e-10
3.19075951636e-10
9.27129948548e-10
2.99096930468e-10
8.76444932923e-10
2.63824260271e-10
8.23248555302e-10
2.26739624966e-10
7.71700636917e-10
1.9277261906e-10
7.23843509126e-10
1.63309543795e-10
6.80498621457e-10
1.38344137962e-10
6.4182294279e-10
1.17383568464e-10
6.07634650904e-10
9.98203373e-11
5.77596922789e-10
8.50759984968e-11
5.51318285573e-10
7.26482453897e-11
5.28405192498e-10
6.21184150926e-11
5.08487808421e-10
5.31441226771e-11
4.91231094242e-10
4.54475422662e-11
4.76338052949e-10
3.88035926781e-11
4.63548981968e-10
3.30295485977e-11
4.52638853766e-10
2.79764371339e-11
4.43413971713e-10
2.35221212375e-11
4.35708501312e-10
1.95658209809e-11
4.29381173195e-10
1.60238022888e-11
4.24312288274e-10
1.2825990178e-11
4.20401066686e-10
9.91330495793e-12
4.17563336631e-10
7.23556085329e-12
4.15729537286e-10
4.74980206216e-12
4.14843000933e-10
2.41898030197e-12
4.14858476788e-10
2.10900967708e-13
4.15740859659e-10
-1.90261711752e-12
4.17464086623e-10
-3.94640486814e-12
4.20010172789e-10
-5.94247022197e-12
4.2336835346e-10
-7.91040548779e-12
4.27534302472e-10
-9.86768717631e-12
4.32509397181e-10
-1.182987879e-11
4.38300000223e-10
-1.3810740954e-11
4.44916726634e-10
-1.5822248897e-11
4.5237366306e-10
-1.78745135115e-11
4.60687502837e-10
-1.99755990409e-11
4.69876557754e-10
-2.21312279744e-11
4.79959603962e-10
-2.43443623159e-11
4.90954516916e-10
-2.66146505893e-11
5.02876648878e-10
-2.8937732597e-11
5.15736903913e-10
-3.13044002139e-11
5.29539470882e-10
-3.36996238123e-11
5.44279187052e-10
-3.61014719088e-11
5.59938526028e-10
-3.84799777864e-11
5.76484236575e-10
-4.07960420421e-11
5.93863706128e-10
-4.30005035401e-11
6.12001185588e-10
-4.50335597411e-11
6.30794089531e-10
-4.68247634907e-11
6.50109672935e-10
-4.82938550337e-11
6.69782471853e-10
-4.93526890488e-11
6.89612964091e-10
-4.9908469386e-11
7.09367936525e-10
-4.98683956778e-11
7.28783015559e-10
-4.91456537328e-11
7.475677106e-10
-4.76664583632e-11
7.654131295e-10
-4.53776086466e-11
7.82002254748e-10
-4.22537724076e-11
7.97022331646e-10
-3.83035119207e-11
8.10178541214e-10
-3.35729465018e-11
8.21207763953e-10
-2.81460122904e-11
8.29890991278e-10
-2.21406533201e-11
8.3606295084e-10
-1.57010312444e-11
8.39617886056e-10
-8.98683558352e-12
8.40511122663e-10
-2.16161371255e-12
8.3875683871e-10
4.6177345896e-12
8.34423037527e-10
1.12086732059e-11
8.27624915444e-10
1.74873825066e-11
8.18517636671e-10
2.33502261151e-11
8.0728918208e-10
2.87132785313e-11
7.9415357221e-10
3.35109743065e-11
7.79344486245e-10
3.76947188406e-11
7.63109146639e-10
4.12319337112e-11
7.45702308985e-10
4.41056423915e-11
7.2738026174e-10
4.6314409187e-11
7.08394865671e-10
4.7872263342e-11
6.88987803562e-10
4.88081933087e-11
6.69385320846e-10
4.91648858572e-11
6.49793778655e-10
4.89965797015e-11
6.30396299441e-10
4.83661372086e-11
6.11350675375e-10
4.73416318056e-11
5.92788567545e-10
4.59928463991e-11
5.74815887994e-10
4.43880653888e-11
5.57514156932e-10
4.25914460025e-11
5.40942575574e-10
4.06611193099e-11
5.25140548641e-10
3.86480410816e-11
5.10130417241e-10
3.65955149378e-11
4.9592020841e-10
3.45392544471e-11
4.82506259169e-10
3.2507832519e-11
4.69875621881e-10
3.05233749741e-11
4.58008199052e-10
2.86023786316e-11
4.4687858758e-10
2.67565632577e-11
4.36457635278e-10
2.49936947913e-11
4.26713727195e-10
2.3318341197e-11
4.1761382787e-10
2.17325407648e-11
4.0912430941e-10
2.02363759106e-11
4.01211596118e-10
1.88284542401e-11
3.9384265486e-10
1.7506303863e-11
3.86985357994e-10
1.62666926379e-11
3.80608742353e-10
1.51058819963e-11
3.74683184694e-10
1.40198258953e-11
3.6918051057e-10
1.30043247102e-11
3.64074050855e-10
1.20551428663e-11
3.59338657206e-10
1.11680978688e-11
3.5495068564e-10
1.03391273279e-11
3.5088795511e-10
9.56433958142e-12
3.47129686413e-10
8.84005271136e-12
3.4365642503e-10
8.16282606809e-12
3.40449950364e-10
7.52948793804e-12
3.37493172525e-10
6.93716262604e-12
3.34770016983e-10
6.38330004667e-12
3.32265296415e-10
5.86571082014e-12
3.29964568573e-10
5.38260989967e-12
3.2785397847e-10
4.93267177518e-12
3.25920083364e-10
4.51510027258e-12
3.24149659646e-10
4.12971561496e-12
3.22529492936e-10
3.77706041457e-12
3.21046156714e-10
3.45852380028e-12
3.1968579282e-10
3.17647757478e-12
3.18433920911e-10
2.93440721637e-12
3.17275327764e-10
2.73699801998e-12
3.16194125996e-10
2.59009080043e-12
3.15174131589e-10
2.50032718208e-12
3.14199789152e-10
2.47410651334e-12
3.13257936479e-10
2.51505157986e-12
3.12340471874e-10
2.61829018598e-12
3.11446301345e-10
2.75834585178e-12
2.86801830311e-12
9.63888863093e-10
1.29288284363e-10
9.87480687142e-10
2.68019757078e-10
9.89304079528e-10
3.17252567013e-10
9.71448865571e-10
3.16952151891e-10
9.40865258308e-10
2.94407874971e-10
9.03603788518e-10
2.64001102252e-10
8.63863359979e-10
2.325130552e-10
8.24294912427e-10
2.02877999067e-10
7.86457771956e-10
1.76181286266e-10
7.51193162814e-10
1.52648185539e-10
7.1888880135e-10
1.32124706782e-10
6.89655743348e-10
1.14309064581e-10
6.63442982062e-10
9.88610148079e-11
6.40110167383e-10
8.54512379336e-11
6.19472911787e-10
7.37813864474e-11
6.01330449775e-10
6.35900124405e-11
5.85482074868e-10
5.46519757151e-11
5.71736515406e-10
4.67751161278e-11
5.59916918236e-10
3.97960422843e-11
5.49863139873e-10
3.35759074573e-11
5.41432420847e-10
2.7996547707e-11
5.34499119563e-10
2.29571110765e-11
5.28953927534e-10
1.83711894788e-11
5.24702825926e-10
1.41644135614e-11
5.21665940735e-10
1.02724527273e-11
5.19776388739e-10
6.63936038562e-12
5.18979165298e-10
3.21620968576e-12
5.19230098859e-10
-4.00270709261e-14
5.20494879519e-10
-3.16739268982e-12
5.22748158044e-10
-6.19967875701e-12
5.25972711468e-10
-9.16701945485e-12
5.30158656391e-10
-1.20963466508e-11
5.35302692367e-10
-1.50117197794e-11
5.41407353933e-10
-1.79345373186e-11
5.48480246825e-10
-2.08836310518e-11
5.56533240461e-10
-2.38752398788e-11
5.65581585516e-10
-2.69228559086e-11
5.7564292154e-10
-3.00369322417e-11
5.86736136003e-10
-3.32244392524e-11
5.98880032521e-10
-3.64882550744e-11
6.12091763391e-10
-3.98263768847e-11
6.26384980317e-10
-4.32309438878e-11
6.41767658905e-10
-4.66870718512e-11
6.58239558435e-10
-5.01715148314e-11
6.75789291013e-10
-5.3651194186e-11
6.94390995931e-10
-5.70816704144e-11
7.1400064901e-10
-6.04056806885e-11
7.34552085835e-10
-6.35519236866e-11
7.55952883975e-10
-6.64343389229e-11
7.78080332541e-10
-6.89521908515e-11
8.00777812948e-10
-7.09913121092e-11
8.23852012344e-10
-7.24268631806e-11
8.4707147231e-10
-7.31279024501e-11
8.70167016519e-10
-7.29639117152e-11
8.92834575494e-10
-7.1813183743e-11
9.14740815521e-10
-6.95726691724e-11
9.35531773865e-10
-6.6168538162e-11
9.54844409982e-10
-6.15663807562e-11
9.72320611797e-10
-5.57796877631e-11
9.87622764202e-10
-4.88750754318e-11
1.00044953681e-09
-4.09727646246e-11
1.01055019945e-09
-3.22412994686e-11
1.01773572329e-09
-2.28865428917e-11
1.02188535038e-09
-1.31364551084e-11
1.0229481837e-09
-3.22444430459e-12
1.02094035463e-09
6.62556160692e-12
1.01593904642e-09
1.62099747378e-11
1.00807483942e-09
2.53515786038e-11
9.97523560405e-10
3.39014904949e-11
9.84498351169e-10
4.17384700209e-11
9.69242223723e-10
4.87670815786e-11
9.52021058214e-10
5.49158624928e-11
9.33116847957e-10
6.01361211719e-11
9.12820983266e-10
6.44014840924e-11
8.91427457446e-10
6.77079125144e-11
8.69226035651e-10
7.00736637685e-11
8.46495601162e-10
7.15386080731e-11
8.23498028419e-10
7.21624409284e-11
8.00472979968e-10
7.20216128165e-11
7.7763396848e-10
7.12051358639e-11
7.55165885469e-10
6.98097045478e-11
7.33224022586e-10
6.79347015402e-11
7.11934449339e-10
6.56776333091e-11
6.91395497535e-10
6.31303947113e-11
6.71680049278e-10
6.03765664816e-11
6.52838325e-10
5.74897660159e-11
6.3490090428e-10
5.45329377802e-11
6.17881766852e-10
5.15583951675e-11
6.01781200246e-10
4.86084033101e-11
5.86588474292e-10
4.57161057239e-11
5.72284227266e-10
4.29066308228e-11
5.58842541922e-10
4.01982539033e-11
5.4623271355e-10
3.76035284148e-11
5.34420727332e-10
3.51303324499e-11
5.23370471347e-10
3.27828014444e-11
5.13044715621e-10
3.05621358917e-11
5.03405888697e-10
2.84672849182e-11
4.94416681982e-10
2.64955137884e-11
4.86040509867e-10
2.46428674087e-11
4.78241850531e-10
2.29045434362e-11
4.70986489216e-10
2.12751887864e-11
4.64241682494e-10
1.97491325132e-11
4.57976259116e-10
1.83205668769e-11
4.52160670234e-10
1.69836869812e-11
4.46766999428e-10
1.57327980199e-11
4.41768940737e-10
1.45623978633e-11
4.37141751161e-10
1.34672416406e-11
4.32862182373e-10
1.24423940189e-11
4.28908395158e-10
1.14832741772e-11
4.25259858819e-10
1.0585697888e-11
4.21897236993e-10
9.74592073706e-12
4.18802260459e-10
8.96068619036e-12
4.15957587209e-10
8.22728198614e-12
4.13346649846e-10
7.54360799507e-12
4.10953490856e-10
6.90825816087e-12
4.087625874e-10
6.3206180216e-12
4.06758669663e-10
5.78097716346e-12
4.04926540786e-10
5.29065175664e-12
4.03250913074e-10
4.85210443858e-12
4.01716285455e-10
4.46903406431e-12
4.00306902304e-10
4.14638049099e-12
3.99006854071e-10
3.89013846378e-12
3.9780040226e-10
3.70677857259e-12
3.96672616973e-10
3.60189157578e-12
3.95610331316e-10
3.57733722915e-12
3.946029863e-10
3.62563535125e-12
3.9364137725e-10
3.71995510416e-12
3.80003591052e-12
9.57476381004e-10
1.09311907657e-10
9.82281949034e-10
2.43214197119e-10
9.94474094178e-10
3.05060429502e-10
9.9132155138e-10
3.20104702001e-10
9.75981381721e-10
3.09748051906e-10
9.52564617404e-10
2.87417873909e-10
9.24530637952e-10
2.60547042097e-10
8.94418763247e-10
2.32989881332e-10
8.63971474675e-10
2.06628582502e-10
8.34327466709e-10
1.82292201255e-10
8.06193737544e-10
1.60258443761e-10
7.79978670748e-10
1.40524139239e-10
7.55889160778e-10
1.22950532665e-10
7.33999439267e-10
1.07340967338e-10
7.14298978147e-10
9.34818554451e-11
6.96725390596e-10
8.11636078313e-11
6.81186761046e-10
7.01906130391e-11
6.67576609896e-10
6.03852749565e-11
6.55783768542e-10
5.15888911875e-11
6.45698761591e-10
4.3660921792e-11
6.37217808221e-10
3.64775082526e-11
6.30245212735e-10
2.99297134846e-11
6.24694675131e-10
2.39217337057e-11
6.20489885988e-10
1.83692089762e-11
6.17564654399e-10
1.31976901891e-11
6.15862737416e-10
8.34128279037e-12
6.15337483881e-10
3.74146814378e-12
6.15951366724e-10
-6.53905532424e-13
6.17675447911e-10
-4.89147007346e-12
6.2048880556e-10
-9.01303320895e-12
6.24377940721e-10
-1.30561520381e-11
6.2933616183e-10
-1.70545658009e-11
6.35362943055e-10
-2.10384996414e-11
6.42463245465e-10
-2.5034838919e-11
6.50646784322e-10
-2.90671695822e-11
6.59927220598e-10
-3.31556762092e-11
6.70321250018e-10
-3.73168856366e-11
6.81847558252e-10
-4.15632408715e-11
6.94525606371e-10
-4.59024876615e-11
7.0837420666e-10
-5.03368553171e-11
7.23409845597e-10
-5.48620151908e-11
7.39644709165e-10
-5.94658059599e-11
7.57084366459e-10
-6.41267265042e-11
7.757250727e-10
-6.8812216988e-11
7.95550663887e-10
-7.34767795757e-11
8.16529035802e-10
-7.80600345567e-11
8.3860823255e-10
-8.24848674784e-11
8.61712218727e-10
-8.66558975483e-11
8.85736477042e-10
-9.04585824723e-11
9.10543661704e-10
-9.37593582636e-11
9.35959643368e-10
-9.64072741003e-11
9.61770394443e-10
-9.82375922979e-11
9.87720263928e-10
-9.9077747937e-11
1.01351225097e-09
-9.8755873053e-11
1.03881087367e-09
-9.71117794801e-11
1.06324812019e-09
-9.40098880081e-11
1.08643275433e-09
-8.93531445416e-11
1.10796293594e-09
-8.30965352572e-11
1.12744171542e-09
-7.52584415372e-11
1.14449447019e-09
-6.59278067003e-11
1.15878679144e-09
-5.52650653207e-11
1.17004082883e-09
-4.34953199312e-11
1.1780479404e-09
-3.08936416947e-11
1.18267597079e-09
-1.77644772946e-11
1.1838706046e-09
-4.41907464981e-12
1.18165157264e-09
8.84459229521e-12
1.17610540593e-09
2.1756135699e-11
1.16737658352e-09
3.40803911819e-11
1.15565846254e-09
4.56195981202e-11
1.14118472749e-09
5.62121888492e-11
1.12422154096e-09
6.57302497511e-11
1.10506023243e-09
7.40771512677e-11
1.08401021942e-09
8.11861138128e-11
1.06139187081e-09
8.70198124485e-11
1.03752915233e-09
9.15706115391e-11
1.01274209639e-09
9.48607016759e-11
9.8733936031e-10
9.69413280244e-11
9.61611309258e-10
9.78904781321e-11
9.35824119317e-10
9.78087914204e-11
9.10215321012e-10
9.68139254668e-11
8.84991023052e-10
9.50339964392e-11
8.60324835698e-10
9.26008853808e-11
8.36358317976e-10
8.96441499031e-11
8.13202644958e-10
8.62860687756e-11
7.90941139511e-10
8.26380748748e-11
7.69632324363e-10
7.87985857245e-11
7.49313200791e-10
7.48520672127e-11
7.30002527852e-10
7.08690749621e-11
7.11703943837e-10
6.69069948676e-11
6.94408830834e-10
6.30112266781e-11
6.78098869851e-10
5.92165999034e-11
6.62748268158e-10
5.55488636168e-11
6.48325663664e-10
5.20261406585e-11
6.34795725786e-10
4.86602776516e-11
6.22120480442e-10
4.54580535663e-11
6.10260390451e-10
4.24222320296e-11
5.99175223302e-10
3.95524575282e-11
5.88824736956e-10
3.68460048854e-11
5.79169211984e-10
3.42983964199e-11
5.70169855399e-10
3.19039033673e-11
5.61789098413e-10
2.9655948463e-11
5.53990807222e-10
2.75474257855e-11
5.4674042305e-10
2.55709525766e-11
5.40005044956e-10
2.37190661119e-11
5.33753466545e-10
2.19843770405e-11
5.27956175612e-10
2.03596890419e-11
5.22585323917e-10
1.88380932794e-11
5.17614672706e-10
1.74130449293e-11
5.13019518281e-10
1.6078428113e-11
5.08776600781e-10
1.48286147556e-11
5.04863998509e-10
1.36585222799e-11
5.01261009408e-10
1.25636744993e-11
4.97948021004e-10
1.15402695685e-11
4.94906369982e-10
1.05852581902e-11
4.92118193011e-10
9.69643431973e-12
4.89566271335e-10
8.87253891424e-12
4.87233873413e-10
8.11337434348e-12
4.85104602653e-10
7.4199218206e-12
4.83162261455e-10
6.79444499255e-12
4.81390748347e-10
6.24054658271e-12
4.79774011794e-10
5.7631165214e-12
4.78296089766e-10
5.36806005187e-12
4.76941260794e-10
5.06160722206e-12
4.75694295035e-10
4.84885717474e-12
4.74540651179e-10
4.73098111315e-12
4.73466027592e-10
4.70025910564e-12
4.72453678399e-10
4.7323045055e-12
4.77679100327e-12
9.52840647712e-10
9.39712641252e-11
9.76165977027e-10
2.19888875715e-10
9.93144941678e-10
2.88081472338e-10
9.99081601953e-10
3.14168048903e-10
9.94617255395e-10
3.14212405609e-10
9.82170390254e-10
2.99864746259e-10
9.64289227114e-10
2.78428212555e-10
9.43110011998e-10
2.54169103879e-10
9.20265620069e-10
2.29472981964e-10
8.96942813958e-10
2.05615014976e-10
8.73973273269e-10
1.83227992116e-10
8.5191982147e-10
1.62577598738e-10
8.31147490489e-10
1.43722871361e-10
8.11878782853e-10
1.26609682682e-10
7.94235397445e-10
1.11125248533e-10
7.7826919143e-10
9.7129821471e-11
7.63984882047e-10
8.44749299663e-11
7.51356532567e-10
7.30136318668e-11
7.40339417309e-10
6.26060137272e-11
7.30878480042e-10
5.31218661513e-11
7.22914297083e-10
4.444169807e-11
7.16387222402e-10
3.64567947418e-11
7.11240214666e-10
2.90687476848e-11
7.07420713119e-10
2.21887163754e-11
7.04881830177e-10
1.57365785373e-11
7.03583055097e-10
9.64006277235e-12
7.0349060877e-10
3.83391881437e-12
7.04577549555e-10
-1.7408425863e-12
7.06823695125e-10
-7.13761257131e-12
7.10215415145e-10
-1.24047508531e-11
7.14745323538e-10
-1.75860587773e-11
7.20411883826e-10
-2.27211251676e-11
7.27218935014e-10
-2.78455506302e-11
7.35175136365e-10
-3.29910407623e-11
7.44293322001e-10
-3.81853563406e-11
7.54589749751e-10
-4.34521056243e-11
7.66083222796e-10
-4.88103607646e-11
7.78794057062e-10
-5.42740774802e-11
7.92742862098e-10
-5.98512951044e-11
8.07949098337e-10
-6.55430938003e-11
8.24429369523e-10
-7.13422881938e-11
8.42195406219e-10
-7.72318437594e-11
8.61251695672e-10
-8.31830160386e-11
8.81592716209e-10
-8.91532362713e-11
9.0319974294e-10
-9.50838034078e-11
9.26037208719e-10
-1.00897495502e-10
9.5004863386e-10
-1.06496285595e-10
9.75152184781e-10