/*--------------------------------*- C++ -*----------------------------------*\
  =========                 |
  \\      /  F ield         | OpenFOAM: The Open Source CFD Toolbox
   \\    /   O peration     | Website:  https://openfoam.org
    \\  /    A nd           | Version:  7
     \\/     M anipulation  |
\*---------------------------------------------------------------------------*/
FoamFile
{
    version     2.0;
    format      ascii;
    class       volVectorField;
    location    "2880";
    object      U;
}
// * * * * * * * * * * * * * * * * * * * * * * * * * * * * * * * * * * * * * //

dimensions      [0 1 -1 0 0 0 0];

internalField   nonuniform List<vector> 
8192
(
(0.00104348226376 0.000156517736242 0)
(0.00075938620969 0.000127578320736 0)
(0.000549417212233 8.23906824701e-05 0)
(0.000414161129018 5.28654062721e-05 0)
(0.000326310997655 3.49847304591e-05 0)
(0.000267220161837 2.41061107426e-05 0)
(0.000225829000385 1.72850561667e-05 0)
(0.000195705190734 1.28387590532e-05 0)
(0.000173045002076 9.82143530801e-06 0)
(0.000155528951552 7.69462106173e-06 0)
(0.000141690654289 6.14368218718e-06 0)
(0.000130568182966 4.97879525431e-06 0)
(0.000121507935793 4.08145816065e-06 0)
(0.000114051347586 3.37513640194e-06 0)
(0.000107867444407 2.80877323602e-06 0)
(0.000102711407911 2.34726981366e-06 0)
(9.83983170422e-05 1.96582769338e-06 0)
(9.47860086888e-05 1.64648737523e-06 0)
(9.17635783942e-05 1.37594970364e-06 0)
(8.92434681701e-05 1.14416736603e-06 0)
(8.71558965938e-05 9.43411110499e-07 0)
(8.54448563597e-05 7.67636071913e-07 0)
(8.40651848837e-05 6.12042395948e-07 0)
(8.29803850717e-05 4.72764447673e-07 0)
(8.21609807887e-05 3.46646906466e-07 0)
(8.15832603104e-05 2.31080684491e-07 0)
(8.12283059666e-05 1.23880821046e-07 0)
(8.10812380436e-05 2.31943249231e-08 0)
(8.11306212241e-05 -7.25702012239e-08 0)
(8.13679952521e-05 -1.64796413683e-07 0)
(8.17875011157e-05 -2.54701889459e-07 0)
(8.23855815811e-05 -3.43370819294e-07 0)
(8.31607391864e-05 -4.31778770603e-07 0)
(8.41133370986e-05 -5.20810791738e-07 0)
(8.52454302544e-05 -6.11273588265e-07 0)
(8.65606152247e-05 -7.03902074244e-07 0)
(8.80638873939e-05 -7.99360133604e-07 0)
(8.97614934377e-05 -8.98235159507e-07 0)
(9.16607658369e-05 -1.00102555142e-06 0)
(9.3769924337e-05 -1.10812016506e-06 0)
(9.60978269779e-05 -1.21976843405e-06 0)
(9.8653650782e-05 -1.33603990696e-06 0)
(0.00010144647975 -1.45677202153e-06 0)
(0.00010448477607 -1.58150553941e-06 0)
(0.000107775710214 -1.70940801077e-06 0)
(0.000111324328182 -1.83918743984e-06 0)
(0.000115132540904 -1.96900080049e-06 0)
(0.000119197933703 -2.09636555606e-06 0)
(0.000123512414004 -2.2180864048e-06 0)
(0.000128060744369 -2.33021384648e-06 0)
(0.000132819044593 -2.42805468062e-06 0)
(0.000137753388358 -2.50625605983e-06 0)
(0.000142818661057 -2.55898261066e-06 0)
(0.000147957877609 -2.58019929466e-06 0)
(0.000153102172401 -2.56406068018e-06 0)
(0.000158171658304 -2.5053907367e-06 0)
(0.000163077300391 -2.4002177453e-06 0)
(0.000167723858481 -2.24630820288e-06 0)
(0.000172013821392 -2.04362463605e-06 0)
(0.000175852093113 -1.79461968753e-06 0)
(0.000179151019026 -1.50428209197e-06 0)
(0.000181835201034 -1.17987958715e-06 0)
(0.00018384550107 -8.30404402565e-07 0)
(0.000185141721877 -4.65805021918e-07 0)
(0.000185703685807 -9.61524645264e-08 0)
(0.000185530745104 2.69094530935e-07 0)
(0.000184640047565 6.21599285444e-07 0)
(0.000183064049351 9.54390255043e-07 0)
(0.000180847761686 1.26188405589e-06 0)
(0.000178046093141 1.53976683816e-06 0)
(0.000174721481137 1.7848237066e-06 0)
(0.000170941845684 1.9947870413e-06 0)
(0.000166778789588 2.16824172599e-06 0)
(0.00016230592518 2.30459338202e-06 0)
(0.000157597220617 2.40408057432e-06 0)
(0.000152725311204 2.46779757526e-06 0)
(0.00014775979128 2.49769104558e-06 0)
(0.000142765567232 2.49650221507e-06 0)
(0.000137801392976 2.4676422584e-06 0)
(0.000132918714624 2.41500771625e-06 0)
(0.000128160921868 2.34275838862e-06 0)
(0.000123563050754 2.25508802512e-06 0)
(0.000119151923112 2.15601701963e-06 0)
(0.000114946657213 2.04922845241e-06 0)
(0.000110959452599 1.93795791315e-06 0)
(0.000107196541385 1.82493717369e-06 0)
(0.000103659205778 1.71238433038e-06 0)
(0.000100344780168 1.60202906125e-06 0)
(9.72475797098e-05 1.49516090094e-06 0)
(9.43597201936e-05 1.39268965815e-06 0)
(9.16718133944e-05 1.29520953407e-06 0)
(8.91735364194e-05 1.20306099265e-06 0)
(8.68540831086e-05 1.11638684411e-06 0)
(8.47025108665e-05 1.03518072405e-06 0)
(8.27079985719e-05 9.59327537617e-07 0)
(8.08600313464e-05 8.88636154325e-07 0)
(7.91485268412e-05 8.22865193964e-07 0)
(7.75639159221e-05 7.61742841976e-07 0)
(7.60971886233e-05 7.04981763187e-07 0)
(7.4739914266e-05 6.52290024296e-07 0)
(7.34842428283e-05 6.03378917632e-07 0)
(7.23228930919e-05 5.5796836296e-07 0)
(7.12491317649e-05 5.15790525815e-07 0)
(7.02567467099e-05 4.76592097637e-07 0)
(6.93400165168e-05 4.40135667076e-07 0)
(6.84936779664e-05 4.06200462134e-07 0)
(6.77128923415e-05 3.74582756708e-07 0)
(6.69932110765e-05 3.45096129082e-07 0)
(6.63305408056e-05 3.17571802163e-07 0)
(6.57211074862e-05 2.91859231226e-07 0)
(6.51614188573e-05 2.67827178342e-07 0)
(6.46482240412e-05 2.45365497875e-07 0)
(6.41784685132e-05 2.24387980058e-07 0)
(6.37492419169e-05 2.0483666512e-07 0)
(6.33577151369e-05 1.86688269012e-07 0)
(6.30010615281e-05 1.69963603702e-07 0)
(6.26763549199e-05 1.54741379857e-07 0)
(6.23804335285e-05 1.41178498343e-07 0)
(6.21097133669e-05 1.29540259587e-07 0)
(6.18599257222e-05 1.20246088839e-07 0)
(6.16257382075e-05 1.13940235556e-07 0)
(6.1400193555e-05 1.11603335653e-07 0)
(6.11738585709e-05 1.14730687323e-07 0)
(6.09335140731e-05 1.25612994653e-07 0)
(6.06601612486e-05 1.47739202182e-07 0)
(6.03262982492e-05 1.86123410506e-07 0)
(5.98939185664e-05 2.46256140819e-07 0)
(5.93317318222e-05 3.15930662918e-07 0)
(0.00121019349484 0.000302841980668 0)
(0.00116037855876 0.000315165078044 0)
(0.00102703578517 0.000238115713052 0)
(0.000887611286259 0.000171820973981 0)
(0.000766918307946 0.000124572288238 0)
(0.000668433835118 9.20938775075e-05 0)
(0.000589461089942 6.96612121705e-05 0)
(0.000526182743472 5.38647756425e-05 0)
(0.000475169785464 4.24685822315e-05 0)
(0.000433693404209 3.40399231478e-05 0)
(0.000399672495695 2.76576034768e-05 0)
(0.000371539638721 2.27202202061e-05 0)
(0.000348112955521 1.88269818415e-05 0)
(0.000328494503206 1.57046717893e-05 0)
(0.000311994941261 1.3162721776e-05 0)
(0.000298079093187 1.10652248761e-05 0)
(0.000286326876255 9.3131996645e-06 0)
(0.000276405186976 7.83313244165e-06 0)
(0.000268047515167 6.56942629312e-06 0)
(0.000261039010451 5.47932539031e-06 0)
(0.00025520541785 4.52943703289e-06 0)
(0.000250404783713 3.6933043634e-06 0)
(0.000246521166579 2.94968261408e-06 0)
(0.000243459815855 2.28129470712e-06 0)
(0.000241143437812 1.67391895401e-06 0)
(0.000239509276387 1.11571056531e-06 0)
(0.000238506811368 5.96690394091e-07 0)
(0.000238095929019 1.0835522076e-07 0)
(0.00023824545724 -3.56622135846e-07 0)
(0.000238931983037 -8.04623686802e-07 0)
(0.000240138889035 -1.24126548629e-06 0)
(0.00024185556012 -1.67153725409e-06 0)
(0.000244076719751 -2.09990733092e-06 0)
(0.000246801860811 -2.53039800662e-06 0)
(0.000250034739869 -2.96663415256e-06 0)
(0.00025378290556 -3.41186617561e-06 0)
(0.000258057232019 -3.86896673743e-06 0)
(0.000262871427042 -4.34039936629e-06 0)
(0.000268241482249 -4.82815592157e-06 0)
(0.000274185029211 -5.33365899541e-06 0)
(0.000280720561724 -5.85762479577e-06 0)
(0.000287866480711 -6.39988221342e-06 0)
(0.000295639915613 -6.95914487442e-06 0)
(0.000304055275944 -7.5327356586e-06 0)
(0.000313122490713 -8.116267862e-06 0)
(0.00032284490424 -8.70329467877e-06 0)
(0.00033321681712 -9.28494923128e-06 0)
(0.000344220693743 -9.84961116749e-06 0)
(0.000355824104993 -1.03826517654e-05 0)
(0.000367976537058 -1.08663255652e-05 0)
(0.000380606272159 -1.12798887799e-05 0)
(0.0003936176275 -1.16000282045e-05 0)
(0.000406888912755 -1.18016731952e-05 0)
(0.000420271517346 -1.18592334321e-05 0)
(0.00043359054745 -1.1748255157e-05 0)
(0.000446647381585 -1.14474216355e-05 0)
(0.000459224390116 -1.09407460288e-05 0)
(0.000471091864102 -1.02197254677e-05 0)
(0.000482016928784 -9.28515506802e-06 0)
(0.000491773898803 -8.14825942748e-06 0)
(0.000500155211539 -6.83081937462e-06 0)
(0.000506981829583 -5.36409211849e-06 0)
(0.000512111932584 -3.78655728544e-06 0)
(0.000515446903311 -2.14081959217e-06 0)
(0.000516934053786 -4.70242345371e-07 0)
(0.000516566122667 1.18405187033e-06 0)
(0.000514378118375 2.78532530693e-06 0)
(0.000510442407767 4.30234108565e-06 0)
(0.000504862974977 5.70960918536e-06 0)
(0.000497769575552 6.98705394242e-06 0)
(0.000489312217065 8.11944165661e-06 0)
(0.000479656108105 9.09584008952e-06 0)
(0.000468977011435 9.90926189636e-06 0)
(0.000457456842357 1.05565229123e-05 0)
(0.00044527936166 1.10382501588e-05 0)
(0.000432625895361 1.1358916991e-05 0)
(0.000419671132036 1.15267692515e-05 0)
(0.000406579161198 1.15535358024e-05 0)
(0.000393499986852 1.145387794e-05 0)
(0.000380566757876 1.12446047554e-05 0)
(0.000367893901253 1.09437415729e-05 0)
(0.000355576244542 1.0569569429e-05 0)
(0.000343689100379 1.01397503588e-05 0)
(0.000332289186598 9.67062394931e-06 0)
(0.000321416189926 9.17671895558e-06 0)
(0.00031109475473 8.67048361977e-06 0)
(0.000301336686364 8.16220838366e-06 0)
(0.000292143190332 7.66009815507e-06 0)
(0.000283507011845 7.17044671975e-06 0)
(0.00027541438531 6.69786976622e-06 0)
(0.000267846743397 6.24556136733e-06 0)
(0.000260782167078 5.81554849086e-06 0)
(0.000254196580883 5.40892718529e-06 0)
(0.000248064712206 5.02607145612e-06 0)
(0.000242360841557 4.66681130262e-06 0)
(0.00023705937376 4.33057999731e-06 0)
(0.00023213526002 4.01653290111e-06 0)
(0.000227564298652 3.72364119288e-06 0)
(0.000223323339087 3.45076431524e-06 0)
(0.000219390410223 3.19670484843e-06 0)
(0.000215744790672 2.96024925035e-06 0)
(0.000212367035105 2.74019744661e-06 0)
(0.000209238968059 2.53538384071e-06 0)
(0.00020634365397 2.34469185732e-06 0)
(0.000203665350126 2.16706379222e-06 0)
(0.000201189447407 2.00150740168e-06 0)
(0.000198902402174 1.84710045398e-06 0)
(0.000196791661415 1.70299426287e-06 0)
(0.000194845582091 1.56841714517e-06 0)
(0.000193053344622 1.44267867969e-06 0)
(0.000191404859442 1.32517570481e-06 0)
(0.000189890664515 1.21540108318e-06 0)
(0.000188501810541 1.11295650038e-06 0)
(0.000187229729262 1.01757088358e-06 0)
(0.000186066078676 9.29126561407e-07 0)
(0.000185002557011 8.47696021507e-07 0)
(0.000184030675074 7.73593243729e-07 0)
(0.000183141473967 7.07445170367e-07 0)
(0.000182325172866 6.50291188009e-07 0)
(0.000181570730685 6.03721628963e-07 0)
(0.000180865309776 5.70070076664e-07 0)
(0.000180193648624 5.52676600681e-07 0)
(0.00017953740741 5.56231317856e-07 0)
(0.00017887470543 5.87157012434e-07 0)
(0.000178180479825 6.53772340977e-07 0)
(0.000177429324148 7.65108299175e-07 0)
(0.00017660554954 9.23425462413e-07 0)
(0.000175723790538 1.08270732714e-06 0)
(0.00122478405763 0.000267864434055 0)
(0.00124106309281 0.000383678542537 0)
(0.00119606744734 0.00034794068936 0)
(0.00111312145871 0.000284366506064 0)
(0.00101984454417 0.000225996669529 0)
(0.000929943093674 0.000179055440197 0)
(0.000848855549825 0.000142759959491 0)
(0.000777984388219 0.000114915557801 0)
(0.000716968506162 9.34466619938e-05 0)
(0.000664788406749 7.67183463603e-05 0)
(0.000620270093169 6.35184250891e-05 0)
(0.000582296459189 5.29659126721e-05 0)
(0.000549882387703 4.44220675376e-05 0)
(0.000522189513836 3.74209360668e-05 0)
(0.000498516501544 3.16190558043e-05 0)
(0.000478281185189 2.67600795832e-05 0)
(0.000461001652186 2.26501193997e-05 0)
(0.000446279033544 1.91405452949e-05 0)
(0.000433782834695 1.61159088861e-05 0)
(0.000423238821352 1.34853857259e-05 0)
(0.000414419170581 1.11766449781e-05 0)
(0.000407134519522 9.13140652523e-06 0)
(0.000401227559544 7.30218244418e-06 0)
(0.000396567871372 5.64985859387e-06 0)
(0.000393047750357 4.14187886903e-06 0)
(0.000390578820214 2.75086687853e-06 0)
(0.000389089274788 1.45356911898e-06 0)
(0.000388521620546 2.30037648534e-07 0)
(0.000388830818453 -9.37006098459e-07 0)
(0.000389982742871 -2.06266521416e-06 0)
(0.00039195289124 -3.16025332904e-06 0)
(0.000394725290326 -4.24159413131e-06 0)
(0.000398291551101 -5.31724471763e-06 0)
(0.000402650029267 -6.3966527264e-06 0)
(0.000407805051788 -7.48825256503e-06 0)
(0.000413766170856 -8.59950234682e-06 0)
(0.000420547406206 -9.73686001028e-06 0)
(0.000428166434691 -1.09056945379e-05 0)
(0.000436643683035 -1.21101259864e-05 0)
(0.000446001275882 -1.33527865956e-05 0)
(0.000456261787384 -1.46344946469e-05 0)
(0.0004674467414 -1.59538338031e-05 0)
(0.000479574804205 -1.73066338941e-05 0)
(0.000492659616142 -1.86853558e-05 0)
(0.000506707217255 -2.00783941158e-05 0)
(0.000521713039467 -2.14693280554e-05 0)
(0.000537658467553 -2.28361740105e-05 0)
(0.000554507016202 -2.41507222538e-05 0)
(0.000572200233033 -2.53780730732e-05 0)
(0.000590653517677 -2.64765195346e-05 0)
(0.000609752141062 -2.73979468914e-05 0)
(0.000629347847856 -2.80889218459e-05 0)
(0.000649256512977 -2.84926168082e-05 0)
(0.000669257379385 -2.8551646408e-05 0)
(0.000689094405017 -2.82117838799e-05 0)
(0.000708480170633 -2.74263808356e-05 0)
(0.000727102633413 -2.61611505132e-05 0)
(0.000744634750953 -2.43988111626e-05 0)
(0.000760746656858 -2.21429470109e-05 0)
(0.000775119669365 -1.94203675275e-05 0)
(0.000787461011716 -1.62812962932e-05 0)
(0.000797517810436 -1.27969760302e-05 0)
(0.00080508884091 -9.05476647432e-06 0)
(0.000810032718719 -5.15143515833e-06 0)
(0.00081227180018 -1.18585211509e-06 0)
(0.000811791813955 2.74756831345e-06 0)
(0.000808637949585 6.56365000141e-06 0)
(0.000802908546648 1.01890864611e-05 0)
(0.000794747562045 1.35632231232e-05 0)
(0.000784336742066 1.66375884405e-05 0)
(0.000771888058804 1.93748670577e-05 0)
(0.000757636616619 2.17478753093e-05 0)
(0.000741833984641 2.37388584566e-05 0)
(0.000724741796265 2.53391829497e-05 0)
(0.000706625465083 2.65492994631e-05 0)
(0.000687747964899 2.73787321129e-05 0)
(0.000668363763875 2.7845818853e-05 0)
(0.000648713138387 2.79769870066e-05 0)
(0.000629017175813 2.78054736091e-05 0)
(0.000609473779902 2.73695504361e-05 0)
(0.000590254917404 2.67104387095e-05 0)
(0.000571505214811 2.58701629374e-05 0)
(0.000553341867506 2.48895874522e-05 0)
(0.000535855696321 2.3806818651e-05 0)
(0.000519113102009 2.26560694702e-05 0)
(0.000503158633152 2.14669983362e-05 0)
(0.000488017891512 2.02644712233e-05 0)
(0.000473700537079 1.90686590413e-05 0)
(0.000460203208567 1.78953710994e-05 0)
(0.000447512231417 1.67565316138e-05 0)
(0.000435606036452 1.5660722503e-05 0)
(0.000424457253795 1.46137353151e-05 0)
(0.000414034477524 1.36190940593e-05 0)
(0.000404303717277 1.2678526414e-05 0)
(0.00039522956553 1.17923728308e-05 0)
(0.00038677611536 1.09599312852e-05 0)
(0.000378907665205 1.01797407696e-05 0)
(0.000371589245804 9.44980949426e-06 0)
(0.00036478700156 8.76779516109e-06 0)
(0.000358468454702 8.13114485655e-06 0)
(0.000352602676522 7.53720181185e-06 0)
(0.000347160385973 6.9832855015e-06 0)
(0.000342113992179 6.46675078667e-06 0)
(0.000337437594115 5.98503090719e-06 0)
(0.000333106947851 5.53566842197e-06 0)
(0.000329099409227 5.11633747888e-06 0)
(0.000325393857741 4.72486031947e-06 0)
(0.000321970605589 4.35922046665e-06 0)
(0.000318811294196 4.01757482515e-06 0)
(0.000315898779178 3.69826673288e-06 0)
(0.00031321700336 3.39984203976e-06 0)
(0.000310750856255 3.12107037009e-06 0)
(0.000308486017243 2.86097403677e-06 0)
(0.000306408778536 2.61886745471e-06 0)
(0.000304505843028 2.39441051965e-06 0)
(0.000302764091419 2.18768010334e-06 0)
(0.000301170312977 1.99926464991e-06 0)
(0.000299710895825 1.83038748004e-06 0)
(0.000298371477229 1.68306438159e-06 0)
(0.000297136565243 1.56029877088e-06 0)
(0.000295989166118 1.46630952117e-06 0)
(0.000294910498699 1.40676271985e-06 0)
(0.000293879968667 1.38891396711e-06 0)
(0.000292875749944 1.42139324009e-06 0)
(0.000291876630082 1.51288049094e-06 0)
(0.000290866272355 1.66751319208e-06 0)
(0.000289840826311 1.8702414082e-06 0)
(0.000288814639495 2.04383758836e-06 0)
(0.00122190682074 0.000221173561261 0)
(0.00125327402535 0.0003827231919 0)
(0.00125074146399 0.000396424267826 0)
(0.00121273742645 0.000356832973855 0)
(0.00115428792414 0.000305256638324 0)
(0.00108780383246 0.000256181033411 0)
(0.00102076748302 0.000213758279686 0)
(0.000957148253467 0.00017840764924 0)
(0.000898778963573 0.000149339763366 0)
(0.000846285801118 0.000125498528091 0)
(0.000799652859964 0.000105889519671 0)
(0.000758548207164 8.96731267582e-05 0)
(0.000722505733352 7.61714209062e-05 0)
(0.000691023025965 6.48471863387e-05 0)
(0.000663611520588 5.52773457777e-05 0)
(0.000639820097705 4.71285515712e-05 0)
(0.000619244254203 4.01370467425e-05 0)
(0.000601527702347 3.4092811331e-05 0)
(0.00058636021487 2.88273520623e-05 0)
(0.000573473808307 2.42043852937e-05 0)
(0.000562638382736 2.01127444835e-05 0)
(0.000553657391685 1.64609716986e-05 0)
(0.00054636381534 1.317317594e-05 0)
(0.000540616547175 1.01858435075e-05 0)
(0.000536297218123 7.44536576759e-06 0)
(0.000533307439307 4.9061103175e-06 0)
(0.00053156642446 2.52890693919e-06 0)
(0.000531008945742 2.79853372031e-07 0)
(0.000531583575326 -1.87062911905e-06 0)
(0.00053325116562 -3.94853705665e-06 0)
(0.000535983526024 -5.97687067427e-06 0)
(0.000539762256799 -7.97608720869e-06 0)
(0.000544577699796 -9.96443595016e-06 0)
(0.000550427967778 -1.19581879371e-05 0)
(0.000557318014339 -1.39717662113e-05 0)
(0.000565258705188 -1.60177775395e-05 0)
(0.000574265849404 -1.81069420538e-05 0)
(0.000584359146174 -2.02479137173e-05 0)
(0.000595560998778 -2.24469815199e-05 0)
(0.000607895143498 -2.47076396474e-05 0)
(0.000621385037361 -2.70300146623e-05 0)
(0.000636051946108 -2.94101403587e-05 0)
(0.000651912673786 -3.18390771781e-05 0)
(0.000668976879869 -3.43018849207e-05 0)
(0.000687243941078 -3.67764762862e-05 0)
(0.000706699336372 -3.92324065997e-05 0)
(0.000727310568066 -4.16296924867e-05 0)
(0.00074902268333 -4.39177989081e-05 0)
(0.000771753530698 -4.60349859469e-05 0)
(0.000795388976076 -4.79082564499e-05 0)
(0.000819778407978 -4.94541800136e-05 0)
(0.000844730972664 -5.05808706925e-05 0)
(0.000870013079004 -5.11913466307e-05 0)
(0.000895347776394 -5.11883855043e-05 0)
(0.000920416609334 -5.04808077921e-05 0)
(0.000944864464742 -4.89908832892e-05 0)
(0.000968307737664 -4.66622917635e-05 0)
(0.000990345845918 -4.34678082386e-05 0)
(0.00101057573529 -3.94156642082e-05 0)
(0.00102860855863 -3.45534135487e-05 0)
(0.00104408723531 -2.89682068764e-05 0)
(0.00105670320335 -2.27827816237e-05 0)
(0.00106621052296 -1.61472735879e-05 0)
(0.00107243573561 -9.22799536153e-06 0)
(0.00107528256558 -2.19519501027e-06 0)
(0.00107473149528 4.7879611114e-06 0)
(0.00107083512079 1.15734748317e-05 0)
(0.0010637106899 1.80330604347e-05 0)
(0.00105353123335 2.40596427073e-05 0)
(0.001040516364 2.95667995963e-05 0)
(0.00102492336275 3.44872726638e-05 0)
(0.00100703875741 3.8771442319e-05 0)
(0.000987170325046 4.23862758614e-05 0)
(0.000965639331599 4.531486455e-05 0)
(0.000942772845264 4.75563517583e-05 0)
(0.000918896081543 4.9125861236e-05 0)
(0.000894324908309 5.00539843646e-05 0)
(0.000869358799621 5.03854803679e-05 0)
(0.000844274623681 5.01770489364e-05 0)
(0.000819321649981 4.94942812104e-05 0)
(0.000794718063882 4.84080998807e-05 0)
(0.000770649115468 4.6991103229e-05 0)
(0.000747266851545 4.53142159619e-05 0)
(0.000724691228752 4.34439485957e-05 0)
(0.000703012308804 4.1440424786e-05 0)
(0.000682293199497 3.93561981824e-05 0)
(0.000662573418164 3.72357767302e-05 0)
(0.000643872400417 3.51157127937e-05 0)
(0.000626192939251 3.30250980927e-05 0)
(0.000609524403872 3.09863114892e-05 0)
(0.000593845645397 2.90158929939e-05 0)
(0.000579127543445 2.71254483018e-05 0)
(0.000565335182629 2.53225183846e-05 0)
(0.000552429671982 2.3611374048e-05 0)
(0.000540369635242 2.19937151552e-05 0)
(0.000529112407859 2.0469268025e-05 0)
(0.000518614979538 1.90362837761e-05 0)
(0.000508834720626 1.76919456157e-05 0)
(0.000499729928227 1.64326958973e-05 0)
(0.000491260224222 1.525449451e-05 0)
(0.00048338683331 1.41530200521e-05 0)
(0.000476072764969 1.31238242324e-05 0)
(0.000469282919312 1.21624489062e-05 0)
(0.000462984133159 1.12645137835e-05 0)
(0.000457145179422 1.04257817867e-05 0)
(0.00045173673008 9.64220787145e-06 0)
(0.000446731290575 8.90997635746e-06 0)
(0.000442103111324 8.22553101643e-06 0)
(0.000437828080252 7.58560176249e-06 0)
(0.000433883598648 6.98723136508e-06 0)
(0.000430248441285 6.42780554316e-06 0)
(0.000426902600575 5.90508970967e-06 0)
(0.000423827113592 5.41727585224e-06 0)
(0.000421003870107 4.96304317236e-06 0)
(0.000418415399574 4.5416364017e-06 0)
(0.000416044635526 4.15296567911e-06 0)
(0.000413874657653 3.79773145136e-06 0)
(0.000411888415776 3.47757604019e-06 0)
(0.000410068447702 3.19525910103e-06 0)
(0.000408396616788 2.95484384923e-06 0)
(0.000406853919152 2.76185841285e-06 0)
(0.000405420450406 2.6233475671e-06 0)
(0.000404075684854 2.54762273311e-06 0)
(0.000402799309275 2.54327739084e-06 0)
(0.000401572944404 2.61648036325e-06 0)
(0.000400382981346 2.76423402244e-06 0)
(0.000399223534861 2.95841343175e-06 0)
(0.000398092795038 3.11259263813e-06 0)
(0.00121688887238 0.000182377873625 0)
(0.00124887651215 0.0003581640512 0)
(0.00126514225067 0.000407250251935 0)
(0.00125488188486 0.00039427141271 0)
(0.00122388103928 0.000357268566555 0)
(0.00118046018997 0.00031407406542 0)
(0.00113117897504 0.000272182831526 0)
(0.00108042129434 0.000234360027432 0)
(0.001030881718 0.000201296271506 0)
(0.000984096598253 0.000172820322562 0)
(0.000940852457065 0.000148444828212 0)
(0.000901468508607 0.00012760644037 0)
(0.000865983184263 0.000109765926526 0)
(0.000834274015645 9.44445779368e-05 0)
(0.000806133170669 8.12323258397e-05 0)
(0.000781314151399 6.97840350123e-05 0)
(0.000759560015771 5.98115637717e-05 0)
(0.000740619897775 5.10749854243e-05 0)
(0.000724258197531 4.33743868277e-05 0)
(0.000710259237189 3.65427383647e-05 0)
(0.000698429158861 3.04399159603e-05 0)
(0.000688596185863 2.49477845538e-05 0)
(0.000680609950143 1.99661949803e-05 0)
(0.000674340322215 1.54097398524e-05 0)
(0.000669676010663 1.12051286916e-05 0)
(0.000666523090863 7.28906396658e-06 0)
(0.000664803554583 3.60652159215e-06 0)
(0.00066445392906 1.0935929394e-07 0)
(0.000665423986162 -3.2448062767e-06 0)
(0.00066767554404 -6.49349352009e-06 0)
(0.000671181356487 -9.67007339316e-06 0)
(0.00067592407543 -1.28043213687e-05 0)
(0.000681895263205 -1.59228204516e-05 0)
(0.000689094429632 -1.90492263095e-05 0)
(0.000697528064485 -2.22043980837e-05 0)
(0.000707208631863 -2.54063928165e-05 0)
(0.000718153488625 -2.86703164289e-05 0)
(0.000730383684516 -3.20080200209e-05 0)
(0.000743922596827 -3.54276270252e-05 0)
(0.000758794347856 -3.89328751298e-05 0)
(0.000775021949384 -4.25222575833e-05 0)
(0.000792625115973 -4.61879529503e-05 0)
(0.000811617689102 -4.99145421217e-05 0)
(0.000832004619097 -5.3677528732e-05 0)
(0.000853778463647 -5.74417063007e-05 0)
(0.000876915383645 -6.11594548485e-05 0)
(0.000901370652763 -6.47691025476e-05 0)
(0.000927073750301 -6.81935534251e-05 0)
(0.000953923180679 -7.1339455145e-05 0)
(0.000981781258571 -7.4097250779e-05 0)
(0.00101046921311 -7.63425069715e-05 0)
(0.00103976308819 -7.79389134268e-05 0)
(0.00106939103018 -7.87432779751e-05 0)
(0.00109903263285 -7.86126767315e-05 0)
(0.00112832101889 -7.74136559845e-05 0)
(0.00115684825025 -7.50330416228e-05 0)
(0.00118417445721 -7.13895339575e-05 0)
(0.00120984075766 -6.64448980248e-05 0)
(0.00123338561394 -6.02132477976e-05 0)
(0.00125436376064 -5.27667340375e-05 0)
(0.00127236627265 -4.42360172256e-05 0)
(0.00128703983121 -3.48044497848e-05 0)
(0.00129810299056 -2.46960474471e-05 0)
(0.00130535748715 -1.41589060428e-05 0)
(0.00130869346181 -3.44707713097e-06 0)
(0.00130808866453 7.19570956577e-06 0)
(0.00130360281667 1.7547934684e-05 0)
(0.00129536888694 2.74169351106e-05 0)
(0.00128358297589 3.66410986304e-05 0)
(0.00126849402341 4.50891190734e-05 0)
(0.00125039396793 5.26579557665e-05 0)
(0.00122960850044 5.92707720534e-05 0)
(0.00120648825995 6.48755551252e-05 0)
(0.00118140021198 6.94445609496e-05 0)
(0.00115471900206 7.29742858888e-05 0)
(0.00112681823558 7.54853933507e-05 0)
(0.00109806184756 7.70219528844e-05 0)
(0.00106879592293 7.76494891427e-05 0)
(0.00103934144537 7.74516432115e-05 0)
(0.00100998844701 7.65256147664e-05 0)
(0.000980991906528 7.49768552662e-05 0)
(0.000952569541156 7.29136306812e-05 0)
(0.000924901422033 7.04420471667e-05 0)
(0.000898131166 6.76619780568e-05 0)
(0.000872368349961 6.46641189065e-05 0)
(0.000847691759538 6.15281965424e-05 0)
(0.000824153106739 5.83222097395e-05 0)
(0.000801780909524 5.51024957534e-05 0)
(0.000780584298943 5.19143909306e-05 0)
(0.000760556591704 4.87932676467e-05 0)
(0.000741678528997 4.57657660508e-05 0)
(0.00072392113228 4.2851082983e-05 0)
(0.000707248163502 4.00622228519e-05 0)
(0.000691618202164 3.7407151134e-05 0)
(0.000676986367154 3.48898190139e-05 0)
(0.00066330571966 3.25110475535e-05 0)
(0.000650528386764 3.02692730613e-05 0)
(0.000638606445235 2.81611632969e-05 0)
(0.000627492602783 2.61821184298e-05 0)
(0.000617140710655 2.43266722768e-05 0)
(0.000607506137438 2.25888093963e-05 0)
(0.000598546029895 2.0962212623e-05 0)
(0.000590219482631 1.94404542357e-05 0)
(0.000582487634784 1.8017142304e-05 0)
(0.000575313708584 1.66860322226e-05 0)
(0.000568663001705 1.54411119646e-05 0)
(0.000562502842815 1.42766683853e-05 0)
(0.000556802517462 1.31873408557e-05 0)
(0.00055153316962 1.21681677537e-05 0)
(0.000546667682545 1.1214630729e-05 0)
(0.00054218054132 1.03227013016e-05 0)
(0.000538047678369 9.48889408672e-06 0)
(0.000534246302507 8.71033080692e-06 0)
(0.000530754711715 7.98481905296e-06 0)
(0.00052755209005 7.31094939741e-06 0)
(0.000524618290084 6.6882135274e-06 0)
(0.00052193360452 6.11714404994e-06 0)
(0.000519478534687 5.59947235643e-06 0)
(0.00051723357047 5.13829248855e-06 0)
(0.000515179007059 4.73820241964e-06 0)
(0.000513294840166 4.40536224702e-06 0)
(0.00051156080408 4.14734672909e-06 0)
(0.000509956644052 3.97254768299e-06 0)
(0.000508462732309 3.88863877704e-06 0)
(0.000507061086905 3.89912883776e-06 0)
(0.000505736523274 3.99611234383e-06 0)
(0.000504476392672 4.1461126118e-06 0)
(0.000503264471718 4.26755469672e-06 0)
(0.00121278488384 0.000152704122893 0)
(0.00124144533122 0.000327189730686 0)
(0.00126512386766 0.00039828031777 0)
(0.00127090921316 0.000407716386491 0)
(0.00125907387718 0.000386659793201 0)
(0.00123426943944 0.000352908144743 0)
(0.00120134096343 0.00031555846227 0)
(0.00116412761677 0.000278955443455 0)
(0.00112536975227 0.000244998316012 0)
(0.00108691132249 0.000214361847548 0)
(0.00104993357072 0.000187125216347 0)
(0.00101515034131 0.000163093250445 0)
(0.000982955412176 0.000141959390383 0)
(0.000953528704028 0.000123387011374 0)
(0.000926910987145 0.000107048474811 0)
(0.000903055595996 9.26423169739e-05 0)
(0.000881863777051 7.98992568027e-05 0)
(0.000863208557403 6.85826502939e-05 0)
(0.0008469506422 5.84863574219e-05 0)
(0.000832948819285 4.94315707196e-05 0)
(0.000821066604679 4.12633958142e-05 0)
(0.000811176333411 3.38475677191e-05 0)
(0.000803161528234 2.7067470838e-05 0)
(0.000796918119116 2.08215184241e-05 0)
(0.000792354905848 1.50208914665e-05 0)
(0.000789393530762 9.58761163263e-06 0)
(0.00078796814163 4.45291381091e-06 0)
(0.000788024864387 -4.44116866144e-07 0)
(0.000789521161366 -5.1576721685e-06 0)
(0.000792425122221 -9.73613565821e-06 0)
(0.00079671471762 -1.42228297555e-05 0)
(0.000802377025633 -1.8656583969e-05 0)
(0.000809407427126 -2.30721404293e-05 0)
(0.000817808760652 -2.75004007921e-05 0)
(0.000827590419064 -3.19685124058e-05 0)
(0.000838767363149 -3.64997862964e-05 0)
(0.000851359021194 -4.11134345889e-05 0)
(0.000865388037293 -4.58241107925e-05 0)
(0.000880878825359 -5.06412332249e-05 0)
(0.00089785588034 -5.55680706506e-05 0)
(0.000916341793444 -6.06005709283e-05 0)
(0.000936354915047 -6.57259199025e-05 0)
(0.000957906608399 -7.09208309475e-05 0)
(0.000980998041062 -7.61495883644e-05 0)
(0.00100561647142 -8.13619032075e-05 0)
(0.0010317310078 -8.64906911815e-05 0)
(0.00105928785175 -9.14499508268e-05 0)
(0.00108820508882 -9.61330055903e-05 0)
(0.00111836716529 -0.000100411469693 0)
(0.0011496192888 -0.000104135391434 0)
(0.00118176211525 -0.000107135095174 0)
(0.0012145472242 -0.000109225251506 0)
(0.00124767402136 -0.000110211616248 0)
(0.00128078880953 -0.000109900662252 0)
(0.00131348679977 -0.000108111976463 0)
(0.00134531775607 -0.000104692836596 0)
(0.00137579575969 -9.95338769303e-05 0)
(0.00140441324177 -9.25842662486e-05 0)
(0.00143065897687 -8.38644027522e-05 0)
(0.00145403915879 -7.34738445646e-05 0)
(0.00147410000744 -6.1592211165e-05 0)
(0.00149044967697 -4.84714364158e-05 0)
(0.00150277681231 -3.44193181353e-05 0)
(0.00151086330316 -1.97765967379e-05 0)
(0.00151458980824 -4.89185213082e-06 0)
(0.00151393419343 9.90089849736e-06 0)
(0.00150896446629 2.42983106795e-05 0)
(0.00149982847325 3.80364606628e-05 0)
(0.00148674242948 5.08934967137e-05 0)
(0.00146997964162 6.26884216769e-05 0)
(0.0014498600118 7.32782920511e-05 0)
(0.00142674033497 8.25555288067e-05 0)
(0.00140100508919 9.04462303902e-05 0)
(0.00137305733775 9.69096297861e-05 0)
(0.00134330945481 0.000101938255394 0)
(0.00131217359918 0.000105557993884 0)
(0.00128005213229 0.000107827159102 0)
(0.00124732842852 0.000108833868199 0)
(0.00121435867429 0.000108691458712 0)
(0.00118146524181 0.000107532199252 0)
(0.0011489320602 0.000105499968632 0)
(0.0011170021496 0.000102742775629 0)
(0.00108587721835 9.94059412558e-05 0)
(0.00105571901628 9.56265366316e-05 0)
(0.00102665202206 9.15293704681e-05 0)
(0.00099876701688 8.72245451139e-05 0)
(0.000972125136099 8.28064031954e-05 0)
(0.000946762066332 7.8353580883e-05 0)
(0.000922692141881 7.39298548337e-05 0)
(0.000899912175789 6.95854927373e-05 0)
(0.000878404928438 6.53588676648e-05 0)
(0.000858142168326 6.12781552128e-05 0)
(0.000839087316366 5.73629882069e-05 0)
(0.000821197689248 5.36259904649e-05 0)