/*--------------------------------*- C++ -*----------------------------------*\
  =========                 |
  \\      /  F ield         | OpenFOAM: The Open Source CFD Toolbox
   \\    /   O peration     | Website:  https://openfoam.org
    \\  /    A nd           | Version:  7
     \\/     M anipulation  |
\*---------------------------------------------------------------------------*/
FoamFile
{
    version     2.0;
    format      ascii;
    class       volScalarField;
    location    "3480";
    object      Ci;
}
// * * * * * * * * * * * * * * * * * * * * * * * * * * * * * * * * * * * * * //

dimensions      [0 -3 0 0 1 0 0];

internalField   nonuniform List<scalar> 
8192
(
9.99999999171
10.000000029
10.0000000845
10.0000001589
10.0000002573
10.0000003763
10.0000005111
10.0000006573
10.0000008119
10.0000009726
10.000001138
10.0000013067
10.0000014779
10.0000016506
10.0000018243
10.0000019978
10.0000021707
10.0000023418
10.0000025107
10.0000026762
10.0000028378
10.0000029943
10.0000031452
10.0000032893
10.0000034258
10.0000035536
10.0000036719
10.0000037792
10.0000038747
10.000003957
10.000004025
10.0000040772
10.0000041125
10.0000041294
10.0000041267
10.0000041031
10.0000040576
10.000003989
10.000003897
10.0000037806
10.0000036404
10.0000034763
10.0000032898
10.0000030817
10.0000028548
10.0000026111
10.0000023543
10.0000020875
10.0000018154
10.0000015415
10.0000012708
10.0000010067
10.0000007542
10.0000005163
10.0000002979
10.0000001016
9.99999993263
9.99999979427
9.99999969273
9.99999963209
9.99999961966
9.99999965984
9.99999975958
9.99999992146
10.0000001495
10.0000004418
10.0000007975
10.0000012096
10.0000016725
10.0000021761
10.0000027129
10.0000032717
10.0000038451
10.0000044229
10.0000049985
10.000005563
10.0000061113
10.0000066363
10.0000071347
10.0000076013
10.0000080349
10.0000084324
10.0000087941
10.000009119
10.0000094089
10.0000096641
10.0000098874
10.0000100802
10.0000102456
10.0000103848
10.0000105017
10.000010598
10.0000106778
10.0000107426
10.000010796
10.0000108391
10.0000108748
10.000010904
10.0000109289
10.0000109498
10.0000109686
10.0000109853
10.0000110014
10.0000110163
10.0000110314
10.0000110459
10.000011061
10.0000110754
10.0000110903
10.0000111044
10.0000111184
10.000011131
10.000011143
10.0000111526
10.0000111607
10.0000111653
10.000011167
10.0000111636
10.0000111551
10.000011139
10.0000111147
10.000011079
10.0000110314
10.0000109693
10.0000108946
10.0000108107
10.0000107283
10.0000106687
10.0000000025
10.0000000494
10.000000103
10.000000169
10.0000002526
10.0000003538
10.000000471
10.0000006017
10.0000007434
10.0000008937
10.0000010508
10.0000012128
10.0000013787
10.0000015473
10.0000017177
10.0000018887
10.0000020598
10.0000022299
10.0000023982
10.000002564
10.0000027264
10.0000028845
10.0000030376
10.0000031846
10.0000033248
10.0000034572
10.0000035809
10.0000036946
10.0000037976
10.0000038885
10.0000039664
10.0000040298
10.0000040778
10.0000041088
10.0000041219
10.0000041156
10.0000040893
10.0000040417
10.0000039723
10.0000038804
10.0000037662
10.0000036298
10.0000034723
10.0000032943
10.0000030981
10.0000028853
10.0000026591
10.0000024221
10.0000021782
10.0000019302
10.0000016825
10.0000014379
10.0000012005
10.0000009728
10.000000759
10.0000005616
10.0000003851
10.0000002325
10.0000001095
10.0000000201
9.99999997085
9.99999996645
10.0000000132
10.0000001145
10.0000002742
10.0000004921
10.0000007683
10.0000010982
10.0000014779
10.0000018999
10.0000023582
10.0000028443
10.0000033514
10.000003871
10.0000043969
10.0000049208
10.0000054374
10.0000059399
10.0000064239
10.0000068842
10.0000073183
10.0000077226
10.0000080964
10.0000084379
10.0000087478
10.0000090258
10.0000092738
10.0000094926
10.0000096849
10.0000098506
10.0000099935
10.0000101157
10.0000102207
10.0000103101
10.000010387
10.0000104527
10.0000105099
10.0000105595
10.0000106035
10.0000106426
10.0000106783
10.000010711
10.0000107418
10.0000107707
10.0000107988
10.0000108256
10.0000108519
10.0000108771
10.0000109019
10.0000109254
10.0000109482
10.0000109692
10.000010989
10.0000110063
10.0000110215
10.0000110332
10.0000110416
10.000011045
10.0000110431
10.0000110339
10.0000110165
10.0000109881
10.0000109478
10.0000108928
10.0000108237
10.0000107448
10.0000106671
10.0000106026
10.0000000035
10.0000000562
10.0000001094
10.000000167
10.0000002351
10.0000003153
10.000000408
10.0000005128
10.000000629
10.0000007553
10.0000008906
10.0000010334
10.0000011825
10.0000013365
10.0000014945
10.0000016552
10.0000018178
10.0000019811
10.0000021445
10.0000023069
10.0000024676
10.0000026257
10.0000027806
10.0000029313
10.0000030772
10.0000032172
10.0000033509
10.0000034769
10.0000035948
10.0000037033
10.0000038017
10.0000038888
10.0000039637
10.0000040252
10.0000040725
10.0000041043
10.0000041199
10.0000041181
10.0000040985
10.0000040601
10.000004003
10.0000039266
10.0000038317
10.0000037182
10.0000035878
10.000003441
10.0000032802
10.0000031064
10.0000029228
10.0000027307
10.0000025334
10.0000023322
10.0000021304
10.0000019292
10.0000017319
10.0000015396
10.0000013563
10.0000011834
10.0000010262
10.0000008873
10.000000773
10.0000006868
10.0000006357
10.0000006227
10.0000006535
10.0000007292
10.0000008528
10.0000010224
10.0000012379
10.0000014949
10.0000017913
10.0000021213
10.0000024816
10.0000028656
10.0000032693
10.0000036859
10.0000041111
10.0000045383
10.0000049634
10.0000053806
10.0000057867
10.0000061772
10.00000655
10.0000069018
10.0000072321
10.000007539
10.0000078231
10.0000080836
10.0000083222
10.0000085387
10.0000087351
10.000008912
10.0000090721
10.0000092162
10.0000093468
10.0000094648
10.0000095725
10.0000096705
10.0000097609
10.0000098439
10.0000099215
10.0000099936
10.0000100618
10.0000101257
10.0000101869
10.0000102446
10.0000103002
10.0000103527
10.0000104033
10.000010451
10.0000104967
10.0000105392
10.0000105795
10.0000106161
10.0000106499
10.0000106793
10.000010705
10.0000107252
10.0000107402
10.0000107478
10.0000107479
10.0000107376
10.0000107167
10.0000106822
10.000010633
10.0000105718
10.0000105091
10.0000104403
10.0000000026
10.0000000606
10.0000001147
10.0000001704
10.0000002326
10.0000003024
10.0000003804
10.0000004673
10.000000563
10.0000006674
10.0000007802
10.0000009008
10.0000010284
10.0000011623
10.0000013016
10.0000014453
10.0000015927
10.0000017428
10.0000018947
10.0000020478
10.0000022012
10.0000023541
10.0000025059
10.0000026559
10.0000028033
10.0000029475
10.0000030878
10.0000032235
10.0000033538
10.0000034779
10.0000035952
10.0000037046
10.0000038055
10.0000038969
10.0000039779
10.0000040475
10.000004105
10.0000041492
10.0000041796
10.0000041952
10.0000041955
10.0000041798
10.0000041481
10.0000040999
10.0000040358
10.0000039558
10.0000038609
10.0000037516
10.0000036293
10.0000034948
10.0000033499
10.0000031953
10.0000030331
10.000002864
10.0000026902
10.0000025126
10.0000023339
10.000002156
10.0000019823
10.0000018159
10.0000016613
10.0000015228
10.0000014054
10.0000013132
10.0000012506
10.0000012204
10.0000012249
10.0000012645
10.0000013397
10.0000014491
10.0000015919
10.0000017657
10.0000019691
10.0000021991
10.0000024535
10.0000027287
10.0000030219
10.0000033289
10.0000036466
10.0000039708
10.0000042985
10.0000046256
10.0000049497
10.0000052673
10.0000055767
10.0000058754
10.0000061625
10.0000064363
10.0000066968
10.0000069432
10.0000071759
10.0000073946
10.0000076004
10.0000077934
10.0000079748
10.0000081449
10.000008305
10.0000084555
10.0000085976
10.0000087316
10.0000088585
10.0000089787
10.000009093
10.0000092015
10.0000093049
10.0000094033
10.0000094972
10.0000095864
10.0000096715
10.0000097521
10.0000098286
10.0000099005
10.0000099683
10.0000100311
10.0000100895
10.0000101425
10.0000101903
10.0000102321
10.0000102677
10.000010296
10.0000103164
10.0000103271
10.0000103274
10.0000103152
10.0000102908
10.000010254
10.0000102193
10.0000101486
10.0000000043
10.000000068
10.0000001274
10.0000001844
10.0000002447
10.0000003097
10.0000003802
10.0000004567
10.0000005397
10.0000006293
10.0000007256
10.0000008286
10.0000009379
10.0000010532
10.000001174
10.0000012997
10.0000014299
10.0000015638
10.0000017008
10.0000018402
10.0000019816
10.0000021241
10.0000022673
10.0000024104
10.0000025531
10.0000026946
10.0000028345
10.000002972
10.0000031066
10.0000032375
10.0000033643
10.0000034861
10.0000036023
10.0000037119
10.0000038143
10.0000039084
10.0000039935
10.0000040685
10.0000041327
10.000004185
10.0000042247
10.0000042508
10.000004263
10.0000042603
10.0000042427
10.0000042098
10.0000041617
10.0000040986
10.0000040209
10.0000039291
10.0000038241
10.0000037066
10.0000035777
10.0000034382
10.0000032897
10.0000031332
10.0000029709
10.0000028045
10.0000026372
10.0000024717
10.000002312
10.0000021619
10.0000020258
10.0000019073
10.0000018101
10.0000017364
10.000001688
10.000001665
10.0000016679
10.0000016953
10.0000017469
10.0000018214
10.0000019183
10.0000020361
10.0000021743
10.0000023312
10.0000025058
10.0000026962
10.0000029011
10.0000031182
10.0000033458
10.0000035816
10.0000038239
10.0000040701
10.0000043188
10.0000045677
10.0000048157
10.0000050608
10.0000053024
10.0000055391
10.0000057703
10.0000059953
10.0000062139
10.0000064255
10.0000066302
10.0000068277
10.0000070183
10.0000072018
10.0000073786
10.0000075485
10.0000077121
10.0000078691
10.0000080201
10.0000081648
10.0000083038
10.0000084367
10.0000085641
10.0000086856
10.0000088016
10.0000089118
10.0000090165
10.0000091152
10.0000092082
10.0000092951
10.0000093761
10.0000094507
10.0000095189
10.0000095802
10.0000096345
10.0000096811
10.0000097195
10.0000097485
10.0000097675
10.0000097746
10.0000097711
10.0000097548
10.0000097473
10.0000096903
10.0000000044
10.0000000732
10.000000136
10.0000001967
10.0000002591
10.000000324
10.0000003921
10.000000464
10.0000005403
10.0000006213
10.0000007073
10.0000007985
10.0000008949
10.0000009964
10.0000011027
10.0000012136
10.0000013289
10.000001448
10.0000015706
10.0000016963
10.0000018245
10.0000019549
10.000002087
10.0000022203
10.0000023543
10.0000024886
10.0000026227
10.0000027561
10.0000028883
10.0000030186
10.0000031466
10.0000032714
10.0000033926
10.0000035092
10.0000036206
10.0000037258
10.000003824
10.0000039142
10.0000039954
10.0000040666
10.0000041269
10.0000041751
10.0000042106
10.0000042323
10.0000042398
10.0000042323
10.0000042098
10.0000041719
10.0000041191
10.0000040514
10.0000039697
10.0000038744
10.0000037665
10.0000036471
10.0000035174
10.0000033787
10.000003233
10.0000030823
10.0000029292
10.0000027768
10.0000026287
10.0000024888
10.0000023608
10.0000022483
10.0000021542
10.0000020803
10.0000020274
10.000001995
10.0000019821
10.0000019872
10.0000020089
10.0000020458
10.000002097
10.0000021615
10.0000022389
10.0000023284
10.0000024296
10.000002542
10.0000026653
10.0000027989
10.0000029424
10.000003095
10.0000032563
10.0000034252
10.0000036011
10.0000037829
10.0000039698
10.0000041607
10.000004355
10.0000045515
10.0000047496
10.0000049482
10.0000051469
10.0000053447
10.0000055412
10.0000057355
10.0000059273
10.000006116
10.0000063012
10.0000064825
10.0000066596
10.0000068321
10.0000069998
10.0000071624
10.0000073198
10.0000074716
10.0000076179
10.0000077583
10.0000078928
10.000008021
10.0000081431
10.0000082587
10.0000083678
10.0000084701
10.0000085657
10.0000086543
10.0000087358
10.0000088099
10.0000088766
10.0000089354
10.0000089861
10.0000090278
10.0000090601
10.0000090817
10.0000090939
10.0000090933
10.0000091022
10.0000090694
10.0000000058
10.0000000787
10.0000001467
10.0000002106
10.0000002749
10.0000003406
10.0000004079
10.0000004777
10.0000005503
10.0000006263
10.0000007061
10.0000007898
10.0000008775
10.0000009695
10.0000010655
10.0000011655
10.0000012693
10.0000013767
10.0000014875
10.0000016013
10.0000017179
10.0000018369
10.000001958
10.0000020809
10.0000022052
10.0000023306
10.0000024565
10.0000025826
10.0000027085
10.0000028336
10.0000029573
10.0000030792
10.0000031984
10.0000033145
10.0000034264
10.0000035336
10.0000036349
10.0000037296
10.0000038165
10.0000038947
10.0000039629
10.0000040204
10.0000040659
10.0000040987
10.0000041178
10.0000041227
10.0000041129
10.0000040882
10.0000040487
10.0000039945
10.0000039263
10.0000038447
10.0000037505
10.0000036449
10.000003529
10.0000034042
10.0000032723
10.0000031355
10.0000029963
10.0000028578
10.0000027235
10.0000025974
10.0000024832
10.0000023845
10.0000023039
10.0000022429
10.000002202
10.00000218
10.0000021752
10.0000021855
10.0000022088
10.0000022431
10.0000022871
10.0000023394
10.0000023991
10.0000024653
10.0000025376
10.0000026155
10.0000026989
10.0000027878
10.0000028824
10.0000029827
10.000003089
10.0000032014
10.00000332
10.0000034447
10.0000035756
10.0000037123
10.0000038548
10.0000040027
10.0000041555
10.0000043128
10.000004474
10.0000046385
10.0000048056
10.0000049746
10.0000051448
10.0000053154
10.0000054859
10.0000056554
10.0000058234
10.0000059892
10.0000061523
10.0000063122
10.0000064682
10.00000662
10.0000067672
10.0000069093
10.000007046
10.000007177
10.000007302
10.0000074208
10.0000075332
10.0000076389
10.0000077378
10.0000078297
10.0000079146
10.0000079923
10.0000080627
10.0000081256
10.0000081808
10.0000082279
10.0000082662
10.0000082956
10.0000083161
10.0000083273
10.0000083413
10.0000083359
10.0000000054
10.0000000811
10.0000001516
10.0000002192
10.0000002869
10.0000003549
10.0000004235
10.0000004932
10.0000005645
10.0000006381
10.0000007143
10.0000007935
10.0000008759
10.0000009616
10.0000010507
10.0000011432
10.0000012389
10.0000013378
10.0000014397
10.0000015445
10.0000016519
10.0000017617
10.0000018738
10.0000019877
10.0000021033
10.0000022202
10.0000023381
10.0000024568
10.0000025754
10.0000026942
10.0000028119
10.0000029287
10.0000030432
10.0000031558
10.0000032645
10.0000033699
10.0000034696
10.0000035643
10.0000036512
10.0000037312
10.0000038014
10.0000038623
10.0000039117
10.0000039494
10.000003974
10.0000039852
10.0000039823
10.0000039651
10.0000039336
10.0000038879
10.0000038286
10.0000037563
10.0000036718
10.0000035761
10.0000034703
10.0000033557
10.0000032339
10.000003107
10.0000029775
10.0000028486
10.0000027241
10.000002608
10.0000025045
10.0000024175
10.0000023497
10.0000023028
10.0000022765
10.0000022695
10.0000022792
10.0000023029
10.0000023379
10.0000023821
10.0000024336
10.0000024908
10.0000025525
10.0000026174
10.0000026849
10.0000027541
10.000002825
10.0000028972
10.0000029711
10.0000030469
10.000003125
10.0000032059
10.0000032901
10.000003378
10.0000034703
10.0000035672
10.0000036692
10.0000037764
10.000003889
10.0000040068
10.0000041298
10.0000042574
10.0000043895
10.0000045254
10.0000046645
10.0000048061
10.0000049497
10.0000050944
10.0000052395
10.0000053843
10.0000055282
10.0000056703
10.0000058102
10.0000059472
10.0000060808
10.0000062103
10.0000063355
10.0000064558
10.0000065709
10.0000066805
10.0000067843
10.0000068821
10.0000069737
10.0000070589
10.0000071378
10.0000072101
10.0000072759
10.000007335
10.0000073874
10.0000074329
10.0000074706
10.0000075017
10.0000075235
10.0000075417
10.0000075532
10.0000075705
10.0000000065
10.0000000851
10.0000001592
10.0000002292
10.000000299
10.0000003687
10.0000004384
10.0000005084
10.0000005794
10.0000006517
10.000000726
10.0000008025
10.0000008815
10.0000009632
10.0000010476
10.0000011349
10.000001225
10.0000013178
10.0000014133
10.0000015114
10.0000016119
10.0000017148
10.0000018196
10.0000019265
10.0000020348
10.0000021449
10.0000022557
10.0000023679
10.0000024799
10.0000025929
10.0000027043
10.0000028165
10.0000029254
10.0000030347
10.0000031385
10.0000032423
10.000003338
10.000003433
10.0000035175
10.0000035996
10.0000036692
10.0000037339
10.0000037849
10.0000038279
10.0000038567
10.0000038745
10.0000038781
10.0000038688
10.0000038457
10.0000038093
10.0000037597
10.0000036977
10.0000036238
10.0000035389
10.0000034437
10.0000033394
10.0000032273
10.0000031092
10.0000029875
10.0000028655
10.0000027469
10.0000026364
10.0000025383
10.000002457
10.0000023954
10.0000023554
10.0000023365
10.000002337
10.0000023542
10.000002385
10.0000024266
10.0000024768
10.0000025338
10.0000025959
10.0000026618
10.0000027303
10.0000028002
10.0000028708
10.0000029413
10.0000030115
10.0000030812
10.0000031505
10.0000032196
10.0000032888
10.0000033586
10.0000034296
10.0000035023
10.0000035775
10.0000036556
10.0000037373
10.0000038228
10.0000039126
10.0000040067
10.0000041051
10.0000042077
10.0000043141
10.000004424
10.000004537
10.0000046524
10.0000047696
10.000004888
10.0000050071
10.0000051259
10.0000052441
10.0000053607
10.0000054755
10.0000055876
10.0000056966
10.000005802
10.0000059035
10.0000060005
10.0000060929
10.0000061802
10.0000062624
10.0000063393
10.0000064108
10.0000064767
10.0000065372
10.0000065922
10.0000066418
10.0000066856
10.0000067243
10.0000067562
10.0000067839
10.000006802
10.0000068223
10.0000068279
10.0000068585
10.000000006
10.0000000865
10.0000001624
10.0000002353
10.0000003079
10.00000038
10.0000004515
10.0000005226
10.000000594
10.0000006662
10.0000007396
10.0000008147
10.0000008917
10.0000009708
10.0000010523
10.0000011361
10.0000012224
10.000001311
10.0000014021
10.0000014954
10.0000015909
10.0000016887
10.0000017882
10.0000018899
10.0000019927
10.0000020977
10.0000022029
10.0000023106
10.0000024167
10.0000025262
10.0000026316
10.0000027418
10.0000028443
10.0000029538
10.0000030507
10.0000031575
10.0000032461
10.0000033471
10.0000034246
10.0000035155
10.0000035796
10.0000036548
10.0000037032
10.000003757
10.0000037874
10.0000038155
10.0000038248
10.0000038254
10.000003811
10.0000037847
10.0000037456
10.0000036943
10.0000036312
10.0000035568
10.0000034716
10.0000033764
10.0000032721
10.0000031603
10.0000030432
10.0000029244
10.000002808
10.0000026992
10.0000026033
10.0000025254
10.0000024687
10.0000024352
10.0000024239
10.0000024325
10.000002457
10.000002494
10.0000025402
10.0000025935
10.0000026522
10.0000027151
10.0000027811
10.000002849
10.000002918
10.0000029872
10.0000030563
10.0000031246
10.0000031921
10.0000032586
10.000003324
10.0000033885
10.0000034524
10.000003516
10.0000035799
10.0000036446
10.0000037107
10.0000037787
10.0000038491
10.0000039223
10.0000039985
10.0000040779
10.0000041605
10.0000042462
10.0000043346
10.0000044254
10.0000045183
10.0000046128
10.0000047083
10.0000048042
10.0000049001
10.0000049953
10.0000050892
10.0000051814
10.0000052713
10.0000053584
10.0000054424
10.0000055229
10.0000055995
10.0000056721
10.0000057403
10.0000058042
10.0000058635
10.0000059183
10.0000059685
10.0000060143
10.0000060557
10.0000060929
10.0000061256
10.0000061546
10.000006178
10.0000061993
10.0000062112
10.0000062292
10.0000062292
10.000006263
10.000000007
10.0000000897
10.0000001682
10.000000243
10.0000003173
10.000000391
10.0000004638
10.0000005359
10.0000006079
10.0000006803
10.0000007534
10.0000008277
10.0000009035
10.0000009811
10.0000010605
10.0000011421
10.0000012257
10.0000013115
10.0000013993
10.0000014894
10.0000015812
10.0000016754
10.0000017708
10.000001869
10.0000019673
10.0000020692
10.0000021693
10.0000022748
10.000002375
10.0000024843
10.0000025822
10.0000026953
10.0000027877
10.0000029052
10.0000029882
10.0000031099
10.0000031796
10.0000033037
10.0000033577
10.0000034793
10.0000035174
10.0000036279
10.0000036528
10.000003741
10.0000037561
10.0000038125
10.0000038181
10.0000038393
10.0000038315
10.0000038207
10.0000037937
10.0000037561
10.0000037065
10.000003645
10.0000035719
10.0000034874
10.000003392
10.0000032869
10.0000031743
10.0000030577
10.0000029417
10.0000028324
10.0000027359
10.0000026579
10.0000026025
10.0000025713
10.0000025629
10.000002574
10.0000026003
10.0000026375
10.0000026824
10.0000027329
10.0000027876
10.0000028456
10.0000029063
10.0000029685
10.0000030318
10.0000030959
10.0000031605
10.0000032253
10.00000329
10.0000033544
10.0000034178
10.0000034804
10.0000035421
10.0000036032
10.0000036638
10.0000037245
10.0000037856
10.0000038476
10.000003911
10.000003976
10.000004043
10.000004112
10.000004183
10.0000042561
10.0000043309
10.0000044073
10.0000044849
10.0000045633
10.000004642
10.0000047206
10.0000047986
10.0000048755
10.0000049509
10.0000050242
10.0000050951
10.0000051632
10.0000052282
10.0000052898
10.0000053478
10.000005402
10.0000054524
10.0000054988
10.0000055413
10.00000558
10.0000056149
10.0000056463
10.0000056742
10.0000056989
10.0000057203
10.0000057389
10.0000057535
10.000005767
10.0000057728
10.0000057856
10.0000057817
10.0000058113
10.0000000066
10.0000000908
10.0000001709
10.0000002478
10.0000003243
10.0000004
10.0000004744
10.000000548
10.0000006209
10.0000006938
10.0000007671
10.0000008412
10.0000009164
10.0000009931
10.0000010714
10.0000011515
10.0000012334
10.0000013173
10.0000014028
10.0000014907
10.0000015798
10.0000016719
10.000001764
10.0000018603
10.0000019546
10.0000020557
10.0000021505
10.0000022574
10.0000023499
10.0000024646
10.0000025503
10.0000026763
10.0000027486
10.0000028909
10.0000029412
10.0000031056
10.0000031247
10.0000033153
10.0000032964
10.0000035108
10.0000034556
10.0000036795
10.0000036017
10.0000038078
10.0000037307
10.0000038876
10.0000038318
10.0000039204
10.0000038889
10.0000039137
10.0000038897
10.0000038702
10.0000038329
10.0000037838
10.000003722
10.0000036465
10.0000035577
10.0000034564
10.0000033445
10.0000032261
10.0000031064
10.0000029933
10.0000028941
10.0000028165
10.0000027648
10.0000027409
10.0000027416
10.0000027624
10.0000027965
10.0000028389
10.0000028857
10.0000029345
10.0000029851
10.0000030357
10.0000030867
10.000003138
10.0000031899
10.0000032427
10.0000032967
10.0000033518
10.0000034081
10.0000034652
10.0000035228
10.0000035804
10.0000036378
10.0000036945
10.0000037512
10.0000038081
10.0000038654
10.0000039234
10.0000039826
10.000004043
10.0000041048
10.0000041682
10.0000042329
10.000004299
10.0000043661
10.000004434
10.0000045023
10.0000045706
10.0000046385
10.0000047056
10.0000047715
10.0000048356
10.0000048976
10.0000049571
10.0000050138
10.0000050674
10.0000051176
10.0000051644
10.0000052075
10.0000052469
10.0000052827
10.0000053147
10.0000053434
10.0000053685
10.0000053907
10.0000054097
10.0000054263
10.0000054401
10.0000054518
10.0000054613
10.0000054684
10.0000054745
10.0000054754
10.0000054819
10.0000054762
10.0000054985
10.0000000073
10.0000000934
10.0000001754
10.0000002538
10.0000003316
10.0000004086
10.0000004843
10.000000559
10.0000006328
10.0000007064
10.0000007801
10.0000008543
10.0000009293
10.0000010056
10.0000010832
10.0000011624
10.0000012431
10.0000013259
10.0000014097
10.0000014964
10.0000015832
10.0000016743
10.0000017634
10.0000018596
10.0000019496
10.0000020525
10.0000021404
10.0000022531
10.0000023336
10.0000024621
10.0000025261
10.0000026806
10.0000027133
10.0000029098
10.0000028896
10.0000031505
10.0000030499
10.0000033996
10.0000031923
10.0000036465
10.0000033222
10.0000038695
10.0000034533
10.0000040378
10.000003601
10.0000041259
10.0000037649
10.0000041349
10.0000039151
10.0000040966
10.0000040045
10.0000040447
10.0000040069
10.0000039776
10.0000039297
10.0000038654
10.0000037852
10.0000036884
10.0000035779
10.0000034569
10.0000033322
10.0000032129
10.0000031087
10.0000030283
10.0000029776
10.0000029575
10.0000029641
10.0000029902
10.0000030283
10.0000030721
10.0000031173
10.000003162
10.0000032044
10.0000032448
10.0000032839
10.0000033224
10.0000033612
10.0000034012
10.0000034432
10.0000034876
10.0000035347
10.0000035839
10.0000036351
10.0000036873
10.0000037403
10.0000037935
10.0000038469
10.0000039001
10.000003954
10.0000040088
10.0000040646
10.0000041218
10.0000041802
10.0000042398
10.0000043006
10.0000043622
10.0000044245
10.0000044871
10.0000045495
10.0000046113
10.0000046722
10.0000047316
10.0000047891
10.0000048444
10.000004897
10.0000049467
10.0000049932
10.0000050361
10.0000050755
10.0000051112
10.0000051431
10.0000051713
10.000005196
10.0000052171
10.000005235
10.0000052497
10.000005262
10.0000052714
10.0000052793
10.0000052845
10.000005289
10.0000052911
10.0000052926
10.0000052925
10.0000052902
10.0000052909
10.0000052849
10.0000052993
10.0000000071
10.0000000944
10.0000001779
10.0000002579
10.0000003373
10.0000004157
10.0000004928
10.0000005687
10.0000006436
10.0000007179
10.0000007922
10.0000008668
10.0000009419
10.0000010182
10.0000010954
10.0000011743
10.0000012542
10.0000013365
10.0000014191
10.0000015053
10.0000015903
10.0000016815
10.0000017677
10.0000018654
10.0000019504
10.0000020579
10.0000021369
10.0000022606
10.0000023239
10.000002476
10.0000025063
10.0000027092
10.000002676
10.0000029672
10.0000028214
10.0000032593
10.0000029293
10.0000035922
10.0000029907
10.0000039611
10.0000030119
10.0000043349
10.0000030295
10.000004646
10.000003111
10.0000048051
10.0000033213
10.0000047601
10.0000036523
10.0000045631
10.0000039849
10.0000043539
10.0000041719
10.0000042222
10.0000041724
10.0000041177
10.0000040445
10.0000039483
10.0000038318
10.0000037
10.0000035625
10.0000034309
10.0000033165
10.0000032324
10.0000031862
10.0000031787
10.000003202
10.0000032451
10.0000032978
10.0000033514
10.0000034026
10.0000034468
10.0000034839
10.0000035149
10.0000035413
10.0000035645
10.0000035865
10.0000036091
10.0000036341
10.0000036627
10.0000036956
10.0000037324
10.000003773
10.0000038162
10.0000038617
10.0000039086
10.0000039566
10.0000040054
10.0000040549
10.0000041052
10.000004157
10.0000042104
10.0000042654
10.0000043216
10.0000043791
10.0000044373
10.000004496
10.0000045547
10.000004613
10.0000046703
10.0000047263
10.0000047803
10.0000048321
10.0000048811
10.0000049271
10.0000049697
10.0000050087
10.0000050439
10.0000050753
10.0000051027
10.0000051264
10.0000051462
10.0000051627
10.0000051754
10.0000051856
10.0000051924
10.0000051976
10.0000051997
10.0000052014
10.0000052
10.0000051996
10.0000051957
10.0000051939
10.0000051883
10.0000051847
10.0000051797
10.0000051747
10.000005181
10.0000000076
10.0000000964
10.0000001813
10.0000002624
10.0000003427
10.0000004222
10.0000005003
10.0000005772
10.0000006531
10.0000007283
10.0000008032
10.0000008783
10.0000009537
10.0000010301
10.0000011072
10.0000011862
10.0000012655
10.0000013478
10.0000014295
10.0000015159
10.0000015993
10.0000016913
10.0000017747
10.000001875
10.0000019549
10.0000020686
10.0000021375
10.0000022751
10.0000023181
10.0000025
10.0000024886
10.0000027534
10.0000026346
10.0000030525
10.000002733
10.0000034231
10.0000027509
10.0000038978
10.0000026509
10.0000045029
10.0000024125
10.0000052266
10.0000020735
10.0000059683
10.0000017799
10.0000065077
10.0000017808
10.0000065739
10.0000022793
10.0000060697
10.000003178
10.0000052777
10.0000040238
10.0000046749
10.000004408
10.0000044206
10.0000043608
10.0000042604
10.0000041358
10.0000039896
10.0000038418
10.0000036906
10.0000035534
10.0000034578
10.000003414
10.0000034136
10.0000034419
10.0000034883
10.0000035452
10.0000036064
10.0000036645
10.0000037129
10.0000037501
10.0000037763
10.0000037935
10.0000038043
10.0000038117
10.0000038191
10.0000038291
10.000003844
10.0000038645
10.0000038908
10.0000039222
10.0000039578
10.0000039968
10.0000040382
10.0000040815
10.0000041262
10.0000041721
10.0000042192
10.0000042672
10.0000043169
10.0000043683
10.0000044212
10.0000044753
10.0000045302
10.0000045854
10.0000046405
10.0000046949
10.0000047482
10.0000047997
10.0000048491
10.0000048959
10.0000049395
10.0000049799
10.0000050165
10.0000050495
10.0000050782
10.0000051032
10.0000051239
10.0000051411
10.000005154
10.0000051643
10.0000051703
10.0000051748
10.0000051749
10.0000051754
10.0000051709
10.000005169
10.0000051611
10.0000051585
10.0000051477
10.0000051453
10.0000051316
10.000005129
10.0000051136
10.0000051109
10.0000051015
10.0000000077
10.0000000975
10.0000001837
10.0000002659
10.0000003472
10.0000004275
10.0000005066
10.0000005845
10.0000006612
10.0000007373
10.0000008128
10.0000008885
10.0000009643
10.0000010412
10.0000011184
10.0000011976
10.0000012768
10.0000013593
10.0000014404
10.0000015273
10.0000016095
10.0000017027
10.0000017841
10.0000018869
10.0000019629
10.0000020821
10.0000021434
10.0000022927
10.00000232
10.0000025268
10.0000024815
10.0000028
10.0000026069
10.0000031409
10.0000026576
10.0000035992
10.000002569
10.0000042529
10.0000022453
10.0000052048
10.000001575
10.0000065455
10.000000497
10.0000082484
9.99999914621
10.0000099982
9.99999802078
10.0000110866
9.99999793798
10.0000106993
9.99999945789
10.0000087359
10.0000020191
10.0000063493
10.0000040735
10.0000049336
10.0000046956
10.0000045559
10.0000044249
10.0000042809
10.0000041131
10.0000038652
10.0000036703
10.0000036041
10.000003585
10.0000035207
10.0000034138
10.0000033397
10.0000033555
10.0000034664
10.0000036255
10.0000037839
10.0000039104
10.000003995
10.0000040423
10.000004062
10.0000040652
10.0000040607
10.0000040559
10.0000040554
10.0000040619
10.0000040757
10.0000040966
10.0000041233
10.0000041547
10.0000041895
10.0000042271
10.0000042667
10.0000043082
10.0000043511
10.0000043955
10.0000044408
10.0000044882
10.0000045373
10.0000045878
10.000004639
10.0000046907
10.0000047421
10.0000047928
10.0000048421
10.0000048895
10.0000049345
10.0000049766
10.0000050153
10.0000050507
10.0000050818
10.0000051095
10.0000051323
10.0000051519
10.0000051662
10.0000051784
10.0000051846
10.0000051904
10.0000051892
10.0000051904
10.0000051825
10.0000051812
10.0000051671
10.0000051654
10.0000051449
10.0000051447
10.0000051162
10.0000051181
10.0000050786
10.0000050817
10.0000050277
10.0000050305
10.0000049628
10.0000000079
10.000000099
10.0000001861
10.000000269
10.000000351
10.000000432
10.0000005119
10.0000005905
10.0000006681
10.0000007449
10.0000008211
10.0000008974
10.0000009737
10.000001051
10.0000011285
10.0000012081
10.0000012873
10.0000013701
10.0000014511
10.0000015385
10.0000016204
10.0000017142
10.000001795
10.0000018988
10.000001974
10.0000020949
10.000002155
10.0000023072
10.0000023322
10.000002545
10.0000024938
10.0000028267
10.0000026149
10.0000031886
10.0000026462
10.0000037001
10.0000024926
10.0000044888
10.0000019847
10.0000057691
10.0000008537
10.0000078478
9.99999876119
10.0000110306
9.99999549455
10.0000152964
9.99999143213
10.0000197148
9.99998813425
10.0000220833
9.99998815251
10.0000200165
9.99999287764
10.0000138255
9.99999985288
10.0000075657
10.0000044152
10.0000048234
10.0000048823
10.0000047617