/*--------------------------------*- C++ -*----------------------------------*\
  =========                 |
  \\      /  F ield         | OpenFOAM: The Open Source CFD Toolbox
   \\    /   O peration     | Website:  https://openfoam.org
    \\  /    A nd           | Version:  7
     \\/     M anipulation  |
\*---------------------------------------------------------------------------*/
FoamFile
{
    version     2.0;
    format      ascii;
    class       volScalarField;
    location    "3480";
    object      p;
}
// * * * * * * * * * * * * * * * * * * * * * * * * * * * * * * * * * * * * * //

dimensions      [0 2 -2 0 0 0 0];

internalField   nonuniform List<scalar> 
8192
(
0.00054155505558
0.000369996858091
0.000284359118988
0.000240215852001
0.000215158734299
0.000199890130507
0.000189993617766
0.000183225357251
0.000178378696295
0.000174769576879
0.000171990467979
0.000169787217506
0.000167994692731
0.000166501687666
0.000165230980497
0.00016412754153
0.0001631512948
0.00016227251844
0.000161468828106
0.000160723141507
0.000160022269463
0.000159355918152
0.00015871596793
0.000158095942309
0.000157490610119
0.000156895682493
0.000156307578099
0.000155723237951
0.000155139976205
0.000154555356991
0.000153967089463
0.000153372935424
0.000152770625078
0.000152157776745
0.000151531817074
0.000150889898954
0.000150228814575
0.000149544901516
0.000148833939986
0.000148091039992
0.000147310517825
0.000146485762429
0.000145609093693
0.000144671616999
0.00014366308121
0.000142571751314
0.000141384311573
0.000140085820823
0.000138659747277
0.000137088115808
0.000135351803991
0.000133431023098
0.000131306013616
0.000128957970455
0.000126370188293
0.000123529383855
0.000120427110766
0.000117061140916
0.000113436651307
0.00010956703919
0.000105474200825
0.000101188159914
9.67460193322e-05
9.21903218648e-05
8.75670121844e-05
8.2923259791e-05
7.83054057358e-05
7.3757234727e-05
6.93186666315e-05
6.50248672959e-05
6.09057123359e-05
5.69855103269e-05
5.32829031082e-05
4.9810894261e-05
4.65769918074e-05
4.35834755676e-05
4.08278050125e-05
3.83031728683e-05
3.59991881915e-05
3.39026508807e-05
3.19983638113e-05
3.02699247491e-05
2.8700446377e-05
2.72731673784e-05
2.59719345859e-05
2.4781552963e-05
2.36880126509e-05
2.26786107247e-05
2.17419886946e-05
2.08681073318e-05
2.00481781241e-05
1.9274567793e-05
1.85406885269e-05
1.78408835209e-05
1.71703142714e-05
1.65248540072e-05
1.59009896034e-05
1.52957332914e-05
1.47065443221e-05
1.41312604156e-05
1.35680382121e-05
1.30153020102e-05
1.24716997308e-05
1.19360653127e-05
1.14073865061e-05
1.08847773792e-05
1.03674546498e-05
9.85471732587e-06
9.34592894307e-06
8.84050207405e-06
8.33788459236e-06
7.83754759972e-06
7.33897477402e-06
6.8416534276e-06
6.34506756979e-06
5.84869409103e-06
5.35200366746e-06
4.85446965536e-06
4.35559020803e-06
3.85493323981e-06
3.35222094163e-06
2.84748500053e-06
2.34135135481e-06
1.83557223843e-06
1.3340553062e-06
8.44969021147e-07
3.85916525898e-07
4.46495774484e-08
0.000392649887044
0.000329127394811
0.000279419976733
0.000246744523425
0.000224796862285
0.000209588981242
0.000198743675217
0.000190796973865
0.000184824133184
0.000180226998503
0.000176609556847
0.000173703566732
0.000171323288655
0.000169337412829
0.000167651310273
0.000166195583784
0.00016491853143
0.000163781085016
0.000162753343799
0.000161812155996
0.000160939401241
0.000160120750412
0.000159344756016
0.00015860217513
0.000157885458224
0.000157188357848
0.000156505624746
0.000155832768304
0.000155165864439
0.000154501398564
0.000153836133854
0.000153166997926
0.000152490982653
0.000151805052165
0.000151106055221
0.000150390639005
0.000149655161771
0.000148895602315
0.000148107464675
0.000147285677104
0.000146424485086
0.000145517339225
0.000144556780191
0.000143534324842
0.000142440360016
0.000141264053694
0.000139993296857
0.000138614693743
0.000137113622484
0.000135474392052
0.000133680523574
0.000131715183377
0.000129561789335
0.000127204800127
0.000124630677104
0.00012182898158
0.000118793537848
0.000115523559326
0.000112024607893
0.000108309243762
0.00010439723309
0.000100315220664
9.609584522e-05
9.17763661197e-05
8.739695827e-05
8.29988882794e-05
7.86227887009e-05
7.43071976978e-05
7.00874390069e-05
6.59948426003e-05
6.20562552591e-05
5.82937668187e-05
5.47245882489e-05
5.13610442887e-05
4.8210670804e-05
4.52764254241e-05
4.25570233632e-05
4.00474008659e-05
3.77392909637e-05
3.56218785188e-05
3.36824891108e-05
3.19072634197e-05
3.02817742381e-05
2.87915552681e-05
2.74225248307e-05
2.61613011113e-05
2.49954156801e-05
2.39134388327e-05
2.29050332232e-05
2.19609528717e-05
2.10730030779e-05
2.02339746421e-05
1.94375629636e-05
1.86782802036e-05
1.79513662534e-05
1.72527025584e-05
1.65787312081e-05
1.59263807782e-05
1.52929994501e-05
1.46762955623e-05
1.40742852237e-05
1.34852465779e-05
1.29076800205e-05
1.23402738021e-05
1.17818742746e-05
1.12314602507e-05
1.06881208165e-05
1.01510361834e-05
9.61946105756e-06
9.0927102736e-06
8.57014634996e-06
8.05116893624e-06
7.53520608234e-06
7.02170767137e-06
6.51014145897e-06
5.99999281118e-06
5.49076969752e-06
4.98201573454e-06
4.47333547094e-06
3.96443885906e-06
3.45521572163e-06
2.94585789246e-06
2.43705757661e-06
1.93032998303e-06
1.42854215048e-06
9.36817639447e-07
4.63730576479e-07
7.89331441545e-08
0.000309724807238
0.000287044898937
0.000261034561228
0.000239776547813
0.000223635441314
0.000211303793496
0.000201763205034
0.000194286708929
0.000188352674941
0.000183582106815
0.000179696796844
0.000176490723136
0.000173810036741
0.000171538870913
0.00016958920445
0.000167893581747
0.000166399855643
0.000165067366748
0.000163864146258
0.000162764851285
0.000161749227474
0.000160800953766
0.000159906766142
0.000159055786647
0.000158239004572
0.000157448871237
0.000156678980082
0.000155923811128
0.000155178524099
0.000154438788503
0.000153700640772
0.000152960362031
0.000152214371434
0.000151459129782
0.000150691049819
0.000149906410368
0.000149101271885
0.000148271391539
0.00014741213637
0.00014651839373
0.000145584478787
0.000144604039864
0.000143569963454
0.00014247428237
0.000141308092366
0.00014006148517
0.000138723508757
0.000137282169295
0.000135724492699
0.000134036667226
0.000132204290561
0.000130212744846
0.000128047718854
0.000125695887144
0.000123145739633
0.000120388532224
0.000117419300662
0.000114237850246
0.000110849607905
0.000107266209031
0.00010350569605
9.95922382588e-05
9.55553445343e-05
9.14286268561e-05
8.72482595312e-05
8.30513358031e-05
7.8874327956e-05
7.47518074513e-05
7.0715482255e-05
6.67935396323e-05
6.30102401415e-05
5.93856880021e-05
5.59357192186e-05
5.26718776587e-05
4.96014763598e-05
4.67277582457e-05
4.40501718354e-05
4.15647667473e-05
3.92646953537e-05
3.71407894895e-05
3.51821693633e-05
3.3376839843e-05
3.17122351826e-05
3.01756851369e-05
2.87547884037e-05
2.74376915021e-05
2.62132797766e-05
2.50712928172e-05
2.40023786246e-05
2.29981011233e-05
2.20509140311e-05
2.11541122749e-05
2.03017696797e-05
1.94886697662e-05
1.87102344279e-05
1.79624539736e-05
1.72418206149e-05
1.65452668119e-05
1.58701090191e-05
1.52139971455e-05
1.45748695091e-05
1.39509131087e-05
1.33405286857e-05
1.27423002356e-05
1.21549683753e-05
1.15774072269e-05
1.10086042689e-05
1.04476428979e-05
9.89368724893e-06
9.34596914527e-06
8.80377686668e-06
8.26644578494e-06
7.73335076668e-06
7.20390067148e-06
6.67753520534e-06
6.15372495259e-06
5.63197552056e-06
5.11183756584e-06
4.59292495624e-06
4.07494470793e-06
3.55774361864e-06
3.04137913124e-06
2.52622521094e-06
2.01312948531e-06
1.50364315386e-06
1.00029843506e-06
5.06410972147e-07
8.8328238411e-08
0.000265206754564
0.000256798132181
0.000242582242973
0.000228766026747
0.000217314741448
0.000208018716401
0.00020042600653
0.000194168874398
0.000188969467159
0.000184615340343
0.000180940739524
0.000177814534239
0.000175132174781
0.000172809940736
0.000170780593872
0.00016898998971
0.000167394401295
0.000165958396794
0.000164653155474
0.000163455131812
0.000162344995475
0.000161306789189
0.000160327258165
0.000159395314391
0.000158501606813
0.000157638174641
0.000156798165868
0.000155975606945
0.000155165212471
0.000154362226491
0.000153562286851
0.00015276130843
0.00015195538123
0.000151140678247
0.000150313370274
0.000149469545264
0.000148605130108
0.000147715813159
0.000146796966201
0.000145843565051
0.000144850108489
0.000143810535974
0.000142718145433
0.000141565513728
0.000140344423931
0.000139045805666
0.000137659697375
0.000136175242485
0.000134580734999
0.000132863733583
0.000131011266079
0.000129010147601
0.000126847433067
0.000124511017913
0.000121990386683
0.000119277488107
0.000116367687626
0.000113260717842
0.000109961518681
0.000106480839798
0.000102835476084
9.90480333503e-05
9.51461823041e-05
9.11614516717e-05
8.7127711725e-05
8.30795662e-05
7.90508766631e-05
7.50735839886e-05
7.11768666722e-05
6.73866023449e-05
6.37250620594e-05
6.02107472949e-05
5.68583076087e-05
5.36785135249e-05
5.06782913334e-05
4.7860844252e-05
4.52258842912e-05
4.27699847662e-05
4.0487041504e-05
3.83688105019e-05
3.64054773205e-05
3.45862120597e-05
3.28996714135e-05
3.13344225102e-05
2.98792771661e-05
2.85235370935e-05
2.72571585795e-05
2.60708495944e-05
2.49561135016e-05
2.39052529785e-05
2.29113458937e-05
2.19682028208e-05
2.10703136057e-05
2.02127885832e-05
1.93912983367e-05
1.86020147315e-05
1.7841554887e-05
1.71069291436e-05
1.63954934733e-05
1.57049065292e-05
1.50330912005e-05
1.43782004884e-05
1.37385873348e-05
1.31127780966e-05
1.24994492438e-05
1.18974069735e-05
1.13055693535e-05
1.07229507424e-05
1.01486481776e-05
9.58182956483e-06
9.02172346147e-06
8.46761040678e-06
7.9188157246e-06
7.37470391918e-06
6.83467479104e-06
6.29816165258e-06
5.76463210529e-06
5.23359220919e-06
4.70459513124e-06
4.17725601526e-06
3.65127555244e-06
3.12647618453e-06
2.60285661686e-06
2.08067130136e-06
1.56052903789e-06
1.04341162261e-06
5.30067392472e-07
8.98255426262e-08
0.000237628105783
0.000235628358757
0.00022779827135
0.000218577397267
0.000210271331438
0.000203217919934
0.000197260490076
0.000192193884617
0.000187849816542
0.000184098591767
0.000180838890061
0.000177989399698
0.000175483441129
0.000173265602703
0.000171289516295
0.000169516257128
0.000167913102223
0.000166452518118
0.000165111314351
0.000163869928703
0.000162711822721
0.000161622971369
0.000160591433229
0.000159606989236
0.000158660839284
0.000157745347335
0.000156853826806
0.000155980359204
0.000155119639934
0.000154266846862
0.000153417524659
0.000152567483917
0.000151712712422
0.000150849293752
0.000149973331614
0.000149080878091
0.00014816786408
0.000147230030506
0.000146262859165
0.00014526150237
0.000144220710954
0.000143134760692
0.000141997377901
0.000140801665941
0.000139540035643
0.000138204144507
0.000136784851878
0.000135272200365
0.000133655437437
0.000131923095265
0.000130063150821
0.00012806329107
0.000125911307945
0.000123595642842
0.00012110608804
0.000118434631913
0.000115576405996
0.00011253065831
0.000109301643511
0.000105899293923
0.000102339525442
9.86440519717e-05
9.48396444883e-05
9.09568786867e-05
8.70285414226e-05
8.3087953147e-05
7.91674718282e-05
7.52973656603e-05
7.150507339e-05
6.78147864428e-05
6.42472557334e-05
6.08197078064e-05
5.75457999421e-05
5.44355931789e-05
5.14955622043e-05
4.87286811768e-05
4.61346221117e-05
4.37100826632e-05
4.14492321331e-05
3.93442394909e-05
3.73858329236e-05
3.55638400031e-05
3.38676679946e-05
3.22866998912e-05
3.08105976461e-05
2.9429516558e-05
2.81342423355e-05
2.69162657522e-05
2.57678099592e-05
2.46818239955e-05
2.36519536045e-05
2.26724980369e-05
2.1738359215e-05
2.08449878255e-05
1.99883293944e-05
1.91647723614e-05
1.8371099318e-05
1.76044420752e-05
1.68622407839e-05
1.61422071392e-05
1.54422914795e-05
1.47606535574e-05
1.40956366483e-05
1.34457447075e-05
1.28096222211e-05
1.21860364782e-05
1.15738619478e-05
1.09720665349e-05
1.03796994583e-05
9.79588058967e-06
9.21979106111e-06
8.6506650555e-06
8.08778266447e-06
7.53046381925e-06
6.97806328584e-06
6.42996686794e-06
5.88558899683e-06
5.34437212908e-06
4.80578855899e-06
4.26934574543e-06
3.73459680041e-06
3.20115860357e-06
2.66873993493e-06
2.13717731418e-06
1.60645038207e-06
1.07654722335e-06
5.46781542664e-07
9.00543445561e-08
0.000219319933686
0.00022017436798
0.000216095047237
0.000209929580793
0.000203809284561
0.000198355699615
0.000193619121474
0.000189504413506
0.000185904750291
0.000182731438344
0.000179914937602
0.000177400310053
0.000175143024917
0.000173106062108
0.000171258063989
0.000169572154625
0.000168025146883
0.000166596968151
0.000165270211498
0.000164029763869
0.00016286248692
0.000161756938174
0.000160703125786
0.000159692292721
0.000158716727065
0.000157769595637
0.000156844798137
0.000155936839255
0.000155040716188
0.000154151820225
0.000153265846562
0.000152378714177
0.000151486494634
0.00015058534486
0.000149671443808
0.000148740931639
0.000147789850122
0.000146814083126
0.000145809296177
0.000144770874271
0.000143693857308
0.000142572872892
0.000141402066699
0.000140175031346
0.000138884735773
0.000137523458737
0.000136082732176
0.000134553303337
0.000132925128426
0.000131187415475
0.000129328739311
0.000127337256323
0.000125201048972
0.000122908627467
0.000120449605336
0.000117815545005
0.000115000938351
0.00011200424868
0.000108828899636
0.000105484060584
0.000101985056776
9.83532426934e-05
9.46152410723e-05
9.08015805767e-05
8.69449329174e-05
8.30782713971e-05
7.92332847215e-05
7.54392696391e-05
7.17224926654e-05
6.81059080194e-05
6.46090954574e-05
6.1248267662e-05
5.80362657691e-05
5.49825284038e-05
5.20930703318e-05
4.9370529782e-05
4.68143374899e-05
4.44210327637e-05
4.21847148809e-05
4.00975861566e-05
3.81505262601e-05
3.63336387036e-05
3.46367251921e-05
3.30496639981e-05
3.15626873922e-05
3.01665666789e-05
2.88527205251e-05
2.76132644246e-05
2.64410179438e-05
2.53294837238e-05
2.42728090147e-05
2.32657376594e-05
2.2303557979e-05
2.13820502086e-05
2.049743573e-05
1.96463294413e-05
1.8825695911e-05
1.8032809586e-05
1.72652190091e-05
1.65207148839e-05
1.57973016927e-05
1.50931725714e-05
1.44066870938e-05
1.37363516614e-05
1.30808021739e-05
1.24387887166e-05
1.18091619876e-05
1.11908612529e-05
1.05829036024e-05
9.98437434579e-06
9.39441837059e-06
8.81223234736e-06
8.23705765274e-06
7.66817395016e-06
7.10489336446e-06
6.54655528189e-06
5.99252184758e-06
5.44217440236e-06
4.89491125011e-06
4.35014744169e-06
3.8073174334e-06
3.26588124985e-06
2.72533242649e-06
2.18519680574e-06
1.64498127606e-06
1.10395349124e-06
5.60512523391e-07
9.05373234635e-08
0.000206474397576
0.000208549370006
0.000206709303058
0.000202657558791
0.000198142921279
0.000193881415275
0.000190061895793
0.000186678432477
0.000183673437973
0.000180986326277
0.000178565970632
0.000176371506739
0.000174370279336
0.000172535671714
0.000170845458839
0.000169280684912
0.000167824923694
0.000166463786706
0.000165184582861
0.000163976068258
0.000162828249887
0.000161732222675
0.000160680028656
0.000159664532196
0.000158679307967
0.000157718539745
0.000156776928714
0.000155849610279
0.000154932078528
0.000154020117953
0.000153109738209
0.000152197114646
0.000151278534903
0.0001503503465
0.000149408906393
0.000148450531498
0.000147471449235
0.000146467747178
0.000145435320911
0.000144369819227
0.000143266585924
0.000142120597576
0.000140926396985
0.000139678022502
0.000138368934265
0.000136991939716
0.000135539122837
0.000134001784565
0.000132370406148
0.000130634652824
0.000128783441991
0.000126805107079
0.000124687693564
0.000122419423977
0.000119989360099
0.000117388269616
0.000114609670108
0.000111650978353
0.000108514643127
0.000105209092007
0.000101749286388
9.81566739782e-05
9.4458390282e-05
9.0685721483e-05
8.68720720991e-05
8.30508582622e-05
7.92537647975e-05
7.55096407828e-05
7.18439812319e-05
6.82788129288e-05
6.48327919545e-05
6.15213173931e-05
5.83565673268e-05
5.53474533267e-05
5.24995538413e-05
4.98151128014e-05
4.72931781278e-05
4.49299158166e-05
4.27190855378e-05
4.0652622135e-05
3.87212475369e-05
3.69150420317e-05
3.52239251342e-05
3.36380230557e-05
3.2147922714e-05
3.07448269754e-05
2.94206322893e-05
2.81679503349e-05
2.69800924097e-05
2.58510311742e-05
2.47753503056e-05
2.3748189213e-05
2.27651873714e-05
2.18224309865e-05
2.09164034543e-05
2.00439402662e-05
1.92021885142e-05
1.83885708533e-05
1.76007536189e-05
1.68366187245e-05
1.60942389359e-05
1.53718561313e-05
1.46678621738e-05
1.39807820573e-05
1.33092590161e-05
1.26520413268e-05
1.20079705539e-05
1.13759710272e-05
1.07550403542e-05
1.01442408004e-05
9.5426913822e-06
8.94956054054e-06
8.36405927499e-06
7.78543464412e-06
7.21296355809e-06
6.64594683212e-06
6.08370351684e-06
5.52556559585e-06
4.97087320299e-06
4.41897050986e-06
3.8692021144e-06
3.32090848793e-06
2.77341506424e-06
2.2259986973e-06
1.67778910984e-06
1.12751479083e-06
5.72970803302e-07
9.20284396959e-08
0.00019704381829
0.00019957742865
0.000199082374161
0.000196511777613
0.000193212919235
0.000189879393861
0.00018677579602
0.000183963903441
0.000181429046785
0.000179135432884
0.00017704654153
0.000175131023139
0.000173363325525
0.000171722763247
0.000170192372405
0.000168757954763
0.000167407374935
0.00016613007005
0.000164916712902
0.000163758978157
0.000162649375049
0.00016158112209
0.000160548048266
0.000159544511147
0.000158565326209
0.000157605703965
0.000156661192895
0.000155727626922
0.000154801077131
0.000153877806182
0.000152954223574
0.000152026843642
0.000151092247387
0.000150147043383
0.000149187829076
0.00014821115177
0.000147213468559
0.000146191104438
0.000145140207739
0.000144056701995
0.000142936233313
0.000141774112318
0.000140565249856
0.000139304085941
0.000137984511967
0.000136599787345
0.00013514245349
0.000133604251139
0.000131976051457
0.000130247817915
0.000128408624319
0.000126446764171
0.000124349995392
0.00012210596874
0.000119702882373
0.00011713038394
0.000114380703045
0.000111449944154
0.000108339409607
0.000105056760997
0.000101616771293
9.80413908234e-05
9.43589018724e-05
9.06021346669e-05
8.68060435949e-05
8.30052122672e-05
7.92318824597e-05
7.55148496669e-05
7.18791060716e-05
6.83459467745e-05
6.49332680714e-05
6.16558062537e-05
5.85252109731e-05
5.55499673994e-05
5.27352619581e-05
5.00829147763e-05
4.75914819212e-05
4.52565758019e-05
4.30713846317e-05
4.10273172624e-05
3.911467615e-05
3.73232709307e-05
3.56429159266e-05
3.40637904894e-05
3.25766691104e-05
3.11730442636e-05
2.98451700713e-05
2.85860530584e-05
2.73894110778e-05
2.6249615725e-05
2.51616284211e-05
2.4120936468e-05
2.31234925908e-05
2.21656597166e-05
2.12441615917e-05
2.03560392299e-05
1.94986128102e-05
1.8669448515e-05
1.78663297218e-05
1.70872319967e-05
1.63303013538e-05
1.55938353223e-05
1.48762663916e-05
1.4176147486e-05
1.34921391426e-05
1.28229981319e-05
1.21675672765e-05
1.15247662722e-05
1.08935833231e-05
1.02730674413e-05
9.66232125919e-06
9.06049423601e-06
8.46677613497e-06
7.88039067582e-06
7.30058926594e-06
6.72664474187e-06
6.15784504659e-06
5.5934867699e-06
5.03286837833e-06
4.47528269542e-06
3.92000740024e-06
3.36629036304e-06
2.81332196941e-06
2.26017642079e-06
1.70568482232e-06
1.14817875079e-06
5.85052829051e-07
9.49629718411e-08
0.000189860099233
0.000192499994632
0.000192812129528
0.000191283769139
0.000188916542756
0.000186324729657
0.000183800260313
0.000181449931426
0.000179294140072
0.000177319630302
0.000175503490362
0.000173822680571
0.000172257101408
0.000170790065045
0.000169407876148
0.000168099215743
0.000166854577178
0.000165665819995
0.000164525839279
0.000163428327672
0.000162367605407
0.000161338497849
0.000160336245212
0.000159356433715
0.000158394940853
0.000157447889999
0.000156511611168
0.000155582605936
0.000154657516278
0.000153733093486
0.000152806167857
0.000151873619833
0.000150932353229
0.000149979266766
0.000149011225002
0.000148025028104
0.000147017379821
0.000145984852946
0.000144923851422
0.000143830568122
0.000142700937191
0.000141530579698
0.000140314741286
0.000139048220529
0.000137725287018
0.000136339588933
0.000134884051411
0.00013335076981
0.000131730906693
0.00013001460857
0.000128190968741
0.000126248075453
0.000124173198078
0.000121953173473
0.000119575052859
0.000117027048822
0.000114299778482
0.000111387736297
0.000108290857388
0.000105015955891
0.000101577742825
9.79990605276e-05
9.43099931962e-05
9.05457514262e-05
8.67436973291e-05
8.29403001794e-05
7.91688546768e-05
7.54583919996e-05
7.18335553761e-05
6.83150045982e-05
6.491997027e-05
6.16626398182e-05
5.8554260214e-05
5.56030006501e-05
5.28137180777e-05
5.01877979422e-05
4.77232102243e-05
4.54148447281e-05
4.32550975908e-05
4.12346086131e-05
3.93430214984e-05
3.75696574589e-05
3.59040375703e-05
3.43362367341e-05
3.28570863911e-05
3.14582599371e-05
3.01322776426e-05
2.88724627085e-05
2.76728720629e-05
2.65282176842e-05
2.54337880202e-05
2.43853746534e-05
2.33792065389e-05
2.24118924361e-05
2.14803712511e-05
2.05818695539e-05
1.97138653893e-05
1.88740574752e-05
1.80603389649e-05
1.72707750269e-05
1.65035836169e-05
1.57571188929e-05
1.50298568302e-05
1.4320382647e-05
1.36273797338e-05
1.29496198088e-05
1.22859540847e-05
1.16353052458e-05
1.09966600768e-05
1.03690625913e-05
9.75160753566e-06
9.14343414211e-06
8.5437200272e-06
7.95167511708e-06
7.36653549688e-06
6.7875570462e-06
6.21400869944e-06
5.64516505004e-06
5.08029780727e-06
4.51866508947e-06
3.95949646647e-06
3.40196936117e-06
2.84516786879e-06
2.28800667543e-06
1.72909039758e-06
1.16646989792e-06
5.97280619068e-07
9.96292797739e-08
0.000184224685011
0.000186812626386
0.000187605515172
0.000186811402414
0.000185160398934
0.000183168697537
0.000181123734684
0.000179157244552
0.000177315602538
0.000175604864956
0.00017401482197
0.000172530425267
0.000171136636057
0.000169820141026
0.000168569698314
0.00016737595361
0.000166231102034
0.00016512854955
0.000164062626609
0.000163028363688
0.000162021322023
0.000161037468317
0.0001600730824
0.000159124688704
0.000158189004471
0.000157262899517
0.000156343363821
0.000155427480291
0.000154512402724
0.000153595332495
0.000152673496879
0.000151744129136
0.000150804449267
0.000149851643189
0.000148882840884
0.000147895092975
0.000146885345142
0.000145850409644
0.000144786933083
0.00014369135934
0.000142559886373
0.000141388415321
0.000140172490063
0.000138907225186
0.000137587220272
0.000136206458763
0.000134758190783
0.000133234801775
0.000131627673463
0.000129927051582
0.00012812194689
0.000126200112556
0.000124148160132
0.000121951892808
0.000119596938811
0.000117069748343
0.000114358967834
0.000111457130299
0.000108362514194
0.000105080932332
0.000101627105647
9.80251515566e-05
9.43076746611e-05
9.05132187027e-05
8.66825216334e-05
8.28546990968e-05
7.90645526026e-05
7.53415402614e-05
7.17099984448e-05
6.81899543418e-05
6.47980071887e-05
6.15478855963e-05
5.84505637205e-05
5.55140245147e-05
5.27428795932e-05
5.01380829347e-05
4.76969265542e-05
4.54134013334e-05
4.32788803211e-05
4.12829850842e-05
3.94144642578e-05
3.76619459746e-05
3.60144912541e-05
3.44619389009e-05
3.29950738414e-05
3.16056674488e-05
3.0286437265e-05
2.90309637994e-05
2.78335903547e-05
2.66893217458e-05
2.55937303556e-05
2.45428731961e-05
2.3533220807e-05
2.25615973689e-05
2.16251307411e-05
2.07212109622e-05
1.98474557924e-05
1.90016820412e-05
1.81818816003e-05
1.73862012956e-05
1.66129258243e-05
1.58604631883e-05
1.51273321424e-05
1.44121512723e-05
1.37136293854e-05
1.30305569596e-05
1.23617984361e-05
1.1706285179e-05
1.10630089524e-05
1.04310157797e-05
9.80940007051e-06
9.19729889887e-06
8.59388632601e-06
7.99836764454e-06
7.40997340531e-06
6.82795303666e-06
6.25156777848e-06
5.68008247133e-06
5.11275540241e-06
4.5488247469e-06
3.98748889766e-06
3.42787565862e-06
2.86899123215e-06
2.30963365029e-06
1.74824818532e-06
1.18270174986e-06
6.09977025086e-07
1.06221517841e-07
0.000179701438138
0.000182171404349
0.000183245253279
0.000182968458342
0.000181867962363
0.00018036373257
0.000178720689019
0.000177079999454
0.000175505188686
0.000174017631183
0.00017261836295
0.000171299926319
0.000170052241492
0.000168865247794
0.000167729918247
0.000166638509885
0.000165584488433
0.000164562339329
0.000163567361017
0.00016259547925
0.000161643094121
0.000160706959762
0.000159784092117
0.000158871699128
0.00015796712799
0.000157067825001
0.000156171304485
0.000155275123925
0.00015437686562
0.000153474117249
0.000152564453775
0.000151645423332
0.000150714532271
0.000149769229315
0.000148806888645
0.000147824791378
0.000146820104835
0.000145789858826
0.000144730918055
0.00014363994947
0.000142513383063
0.000141347364254
0.000140137695504
0.000138879764319
0.000137568454392
0.000136198036495
0.000134762036285
0.000133253078113
0.000131662708299
0.000129981209616
0.000128197432595
0.000126298689826
0.000124270785538
0.00012209827861
0.000119765090278
0.000117255551338
0.00011455592645
0.000111656361931
0.000108553100895
0.000105250708084
0.000101763916243
9.8118499112e-05
9.43504054271e-05
9.05026585567e-05
8.66205306731e-05
8.27466339181e-05
7.89176970386e-05
7.51636887239e-05
7.15085595893e-05
6.79716121289e-05
6.45687964759e-05
6.13134628539e-05
5.82164629142e-05
5.5285756107e-05
5.25258217454e-05
4.99371982349e-05
4.75163995771e-05
4.52563166519e-05
4.31470375518e-05
4.11768906307e-05
3.93334794876e-05
3.76045345086e-05
3.59785008558e-05
3.44448672478e-05
3.29942888305e-05
3.16185717372e-05
3.03105794595e-05
2.90641050792e-05
2.78737372037e-05
2.67347347801e-05
2.56429174813e-05
2.45945733277e-05
2.35863826023e-05
2.26153559846e-05
2.16787845474e-05
2.07741993769e-05
1.98993388759e-05
1.90521221389e-05
1.82306271084e-05
1.74330724834e-05
1.66578025819e-05
1.59032745244e-05
1.51680472529e-05
1.44507719947e-05
1.37501838747e-05
1.30650944258e-05
1.23943848114e-05
1.17369995913e-05
1.10919409039e-05
1.04582629397e-05
9.8350666054e-06
9.22149426655e-06
8.61672446262e-06
8.01996645649e-06
7.43045445143e-06
6.84744122399e-06
6.27019079794e-06
5.69796953767e-06
5.130034629e-06
4.56561816374e-06
4.00390376792e-06
3.44399054676e-06
2.8848357762e-06
2.32516334158e-06
1.7633213407e-06
1.19707525005e-06
6.2334209776e-07
1.14860141881e-07
0.000176006935237
0.000178336334406
0.000179567827216
0.000179655150766
0.000178977237805
0.000177868961698
0.000176564476871
0.000175203644895
0.000173859583221
0.000172564838436
0.000171329793429
0.000170153871085
0.00016903175958
0.000167956622356
0.000166921618156
0.0001659205272
0.000164947931275
0.000163999188281
0.0001630703252
0.000162157910178
0.000161258931142
0.000160370691381
0.000159490724343
0.000158616726186
0.000157746503305
0.000156877931802
0.00015600892613
0.000155137414632
0.000154261321558
0.000153378549688
0.000152486962939
0.000151584375325
0.000150668538187
0.000149737127202
0.000148787728549
0.000147817823646
0.000146824771834
0.000145805790237
0.000144757929833
0.000143678046498
0.00014256276537
0.000141408436373
0.000140211078081
0.000138966306311
0.000137669242988
0.000136314400135
0.000134895533627
0.000133405462528
0.000131835853437
0.000130176977578
0.000128417463635
0.000126544094122
0.000124541727546
0.000122393467012
0.000120081222323
0.000117586802209
0.000114893606585
0.00011198887481
0.000108866323241
0.000105528901185
0.000101991256755
9.82811916104e-05
9.44389724888e-05
9.05135433472e-05
8.65561643009e-05
8.2613934123e-05
7.872588913e-05
7.49224577867e-05
7.12269852319e-05
6.76578565684e-05
6.42303103926e-05
6.09574063305e-05
5.78500647046e-05
5.49164347194e-05
5.21610154636e-05
4.95839580047e-05
4.71808785644e-05
4.49433223373e-05
4.28597770276e-05
4.09169564754e-05
3.91010397867e-05
3.7398643775e-05
3.57974450908e-05
3.42864800249e-05
3.28562057135e-05
3.14984148957e-05
3.0206079014e-05
2.89731699832e-05
2.779448933e-05
2.66655181304e-05
2.55822917804e-05
2.45412987073e-05
2.35393999256e-05
2.25737657625e-05
2.16418262318e-05
2.07412320429e-05
1.98698237811e-05
1.90256073358e-05
1.82067340843e-05
1.74114847061e-05
1.66382557672e-05
1.58855484346e-05
1.51519588293e-05
1.44361696477e-05
1.37369427684e-05
1.30531126213e-05
1.23835801479e-05
1.17273072096e-05
1.1083311329e-05
1.04506606592e-05
9.82846908582e-06
9.21589136072e-06
8.61211815393e-06
8.01637087894e-06
7.42789609162e-06
6.84595916498e-06
6.26983678006e-06
5.69880749439e-06
5.13213918894e-06
4.56907142591e-06
4.00878951572e-06
3.45038518575e-06
2.89279609162e-06
2.33471343522e-06
1.77444544853e-06
1.20972833699e-06
6.37489757896e-07
1.25600400439e-07
0.000172949972
0.000175136124424
0.000176448510132
0.000176791378115
0.00017643732932
0.000175650123161
0.000174631058304
0.000173511995795
0.000172369754961
0.000171244241154
0.000170153113975
0.000169101712983
0.000168089126039
0.000167111644659
0.000166164610372
0.000165243329069
0.000164343470957
0.000163461200417
0.000162593173215
0.000161736475815
0.000160888545701
0.000160047091796
0.000159210023296
0.000158375389638
0.000157541331543
0.000156706041864
0.00015586773455
0.000155024620817
0.000154174890208
0.000153316693815
0.000152448127612
0.000151567221807
0.000150671929181
0.000149760113467
0.000148829537177
0.000147877848279
0.000146902565097
0.000145901058669
0.000144870531573
0.000143807991942
0.000142710220895
0.000141573731013
0.000140394712598
0.000139168963394
0.000137891796146
0.000136557916979
0.000135161266542
0.000133694815802
0.000132150310977
0.000130517969547
0.000128786145464
0.000126941010489
0.000124966342707
0.000122843568142
0.000120552247627
0.000118071201847
0.00011538038892
0.000112463501156
0.000109311096277
0.000105923983691
0.000102316485457
9.85187652341e-05
9.45765807929e-05
9.05466744436e-05
8.6488194052e-05
8.24539140685e-05
7.84854902768e-05
7.46135787015e-05
7.08605299483e-05
6.72435108835e-05
6.37769506688e-05
6.04737352797e-05
5.73451112662e-05
5.43997025011e-05
5.16422307716e-05
4.90724990483e-05
4.66850705034e-05
4.44698282639e-05
4.2413262151e-05
4.05000798429e-05
3.87147103499e-05
3.70424197649e-05
3.54699606676e-05
3.39858220337e-05
3.258020622e-05
3.12448560353e-05
2.99728229576e-05
2.87582321108e-05
2.75960719355e-05
2.64820186673e-05
2.54122959611e-05
2.43835655067e-05
2.33928430688e-05
2.24374344845e-05
2.15148869074e-05
2.06229514953e-05
1.97595546047e-05
1.89227752724e-05
1.8110827343e-05
1.73220450331e-05
1.65548710512e-05