/*--------------------------------*- C++ -*----------------------------------*\
  =========                 |
  \\      /  F ield         | OpenFOAM: The Open Source CFD Toolbox
   \\    /   O peration     | Website:  https://openfoam.org
    \\  /    A nd           | Version:  7
     \\/     M anipulation  |
\*---------------------------------------------------------------------------*/
FoamFile
{
    version     2.0;
    format      ascii;
    class       surfaceScalarField;
    location    "3480";
    object      phi;
}
// * * * * * * * * * * * * * * * * * * * * * * * * * * * * * * * * * * * * * //

dimensions      [0 3 -1 0 0 0 0];

internalField   nonuniform List<scalar> 
16192
(
6.9295377598e-10
2.4454622402e-10
4.93626154842e-10
1.9932761866e-10
3.64894354361e-10
1.28731798012e-10
2.82283718515e-10
8.26106333973e-11
2.27600592632e-10
5.46831233125e-11
1.8990616386e-10
3.76944261131e-11
1.62862353885e-10
2.70438072732e-11
1.42760146823e-10
2.01022043519e-11
1.27367936772e-10
1.53922073536e-11
1.15295122744e-10
1.20728113574e-11
1.05642431444e-10
9.6526886599e-12
9.78069574234e-11
7.83547141619e-12
9.13707723612e-11
6.4361824927e-12
8.60353898244e-11
5.33538000511e-12
8.15819863026e-11
4.45340102528e-12
7.78464893672e-11
3.73549447887e-12
7.47034994088e-11
3.14298753998e-12
7.20556150175e-11
2.64788201785e-12
6.98261585463e-11
2.22945414229e-12
6.79540994809e-11
1.87205678978e-12
6.63904344757e-11
1.56366278393e-12
6.50955556925e-11
1.29487662705e-12
6.40373041868e-11
1.05824941739e-12
6.31895077793e-11
8.47794400227e-13
6.25308678376e-11
6.58638020048e-13
6.204410175e-11
4.86764267644e-13
6.17152756367e-11
3.2882440207e-13
6.15332807584e-11
1.81993295066e-13
6.1489419748e-11
4.38595653529e-14
6.15770778069e-11
-8.76593430072e-14
6.17914596066e-11
-2.14382909266e-13
6.21293774613e-11
-3.37918762512e-13
6.25890799709e-11
-4.59703198697e-13
6.31701116527e-11
-5.81032120697e-13
6.38731951582e-11
-7.03083673722e-13
6.47001286682e-11
-8.26933371948e-13
6.56536910737e-11
-9.53561938389e-13
6.6737547446e-11
-1.08385553764e-12
6.7956146338e-11
-1.21859766684e-12
6.93145995007e-11
-1.35845150801e-12
7.08185328119e-11
-1.50393120759e-12
7.24738956088e-11
-1.65536020923e-12
7.42867133723e-11
-1.81281468126e-12
7.62627671645e-11
-1.97605018996e-12
7.84071817386e-11
-2.14441045725e-12
8.07239047142e-11
-2.31671833503e-12
8.32150613843e-11
-2.49115153426e-12
8.58801761924e-11
-2.66510918988e-12
8.87152626743e-11
-2.83508043743e-12
9.17118015315e-11
-2.99653242368e-12
9.48556505465e-11
-3.14384227669e-12
9.81259614455e-11
-3.27030391565e-12
1.01494213064e-10
-3.36824449905e-12
1.04923504014e-10
-3.42928377197e-12
1.08368271408e-10
-3.44476028908e-12
1.11774607459e-10
-3.40632911175e-12
1.15081320553e-10
-3.30670647453e-12
1.18221826795e-10
-3.14050005773e-12
1.21126857449e-10
-2.90502508501e-12
1.23727837273e-10
-2.60097500865e-12
1.25960645358e-10
-2.23280423128e-12
1.27769350443e-10
-1.80870233764e-12
1.29109456202e-10
-1.34010432386e-12
1.29950238268e-10
-8.40782057147e-13
1.30275907121e-10
-3.25670415275e-13
1.300855559e-10
1.9034806568e-13
1.29392075429e-10
6.93475684468e-13
1.28220373301e-10
1.17169581218e-12
1.26605254805e-10
1.61511072682e-12
1.24589260015e-10
2.01598576268e-12
1.22220635164e-10
2.36861471354e-12
1.19551496461e-10
2.66912769093e-12
1.16636160044e-10
2.91532469824e-12
1.13529582206e-10
3.10656564304e-12
1.10285868821e-10
3.24370087147e-12
1.06956856173e-10
3.32900002072e-12
1.03590809634e-10
3.36603392404e-12
1.00231316214e-10
3.35948098457e-12
9.69164486373e-11
3.31485540765e-12
9.36782568928e-11
3.23817996376e-12
9.05426040762e-11
3.13564147214e-12
8.75293228984e-11
3.0132703503e-12
8.46526352573e-11
2.87667734337e-12
8.19217590936e-11
2.7308664418e-12
7.93416221712e-11
2.58012776232e-12
7.69136112431e-11
2.42800234959e-12
7.46362995983e-11
2.27730361484e-12
7.25061142536e-11
2.13017786575e-12
7.05179199422e-11
1.98818733848e-12
6.86655111553e-11
1.85240231269e-12
6.69420126436e-11
1.72349248586e-12
6.53401956328e-11
1.60181142181e-12
6.38527197741e-11
1.48747065551e-12
6.24723126836e-11
1.38040226171e-12
6.11918982027e-11
1.28040997728e-12
6.00046841195e-11
1.1872098963e-12
5.89042181624e-11
1.1004620407e-12
5.78844201736e-11
1.0197943385e-12
5.69395963717e-11
9.44820374986e-13
5.60644409134e-11
8.75152254844e-13
5.52540282763e-11
8.10409617906e-13
5.45037996599e-11
7.50225785618e-13
5.38095452546e-11
6.9425172684e-13
5.31673842306e-11
6.42158505981e-13
5.2573743206e-11
5.9363863331e-13
5.20253341855e-11
5.48406767706e-13
5.15191320136e-11
5.06200025882e-13
5.10523517538e-11
4.66778235356e-13
5.06224255067e-11
4.29924314215e-13
5.02269785885e-11
3.95445094466e-13
4.98638040487e-11
3.63172796518e-13
4.95308348481e-11
3.32967557733e-13
4.92261119003e-11
3.04721377812e-13
4.89477462807e-11
2.78364144575e-13
4.86938723645e-11
2.53872509578e-13
4.84625881291e-11
2.31282921494e-13
4.82518762733e-11
2.10710609127e-13
4.80594976281e-11
1.92377492761e-13
4.78828429427e-11
1.76653603981e-13
4.77187222021e-11
1.64119761624e-13
4.75630569822e-11
1.55664325098e-13
4.74104203594e-11
1.52635850339e-13
4.72533327744e-11
1.57086923247e-13
4.70811740011e-11
1.72158264637e-13
4.68785435974e-11
2.02630034049e-13
4.66231735996e-11
2.55369801769e-13
4.62852750191e-11
3.37898584437e-13
4.334782835e-13
9.53440951518e-10
2.28605270209e-10
8.59684982249e-10
2.93083583021e-10
7.45087022549e-10
2.43329752764e-10
6.41784040305e-10
1.85913610541e-10
5.5640666122e-10
1.40060497096e-10
4.87760292357e-10
1.06340789561e-10
4.32831314221e-10
8.19727799522e-11
3.8867447711e-10
6.42590360118e-11
3.5288219405e-10
5.11844849923e-11
3.23602229124e-10
4.13527709095e-11
2.99437948592e-10
3.38169638708e-11
2.79338739092e-10
2.79346756539e-11
2.62509499585e-10
2.32654167953e-11
2.48342518669e-10
1.95023557784e-11
2.36368009811e-10
1.64279048024e-11
2.26218616193e-10
1.3884883084e-11
2.17603938065e-10
1.1757660725e-11
2.10292136855e-10
9.95967836479e-12
2.04096521814e-10
8.42506440243e-12
1.98865659561e-10
7.1029143585e-12
1.94475994601e-10
5.95332316254e-12
1.90826278084e-10
4.94458868078e-12
1.87833313462e-10
4.05120970441e-12
1.85428672706e-10
3.25243097126e-12
1.83556136236e-10
2.53117046762e-12
1.8216967891e-10
1.87321775964e-12
1.8123187243e-10
1.26662725659e-12
1.8071260864e-10
7.01253697033e-13
1.80588072103e-10
1.68392979549e-13
1.80839907628e-10
-3.39497688676e-13
1.81454539978e-10
-8.29017745934e-13
1.82422612677e-10
-1.30599356889e-12
1.83738519519e-10
-1.77561172921e-12
1.85400005544e-10
-2.24251936311e-12
1.87407816794e-10
-2.71089562316e-12
1.89765379796e-10
-3.18449649955e-12
1.9247849186e-10
-3.66667350275e-12
1.95555002736e-10
-4.16036522935e-12
1.9900446649e-10
-4.6680595017e-12
2.02837740344e-10
-5.19172265065e-12
2.07066504254e-10
-5.73269157365e-12
2.1170267217e-10
-6.29152370311e-12
2.1675766293e-10
-6.86780012021e-12
2.22241497242e-10
-7.45987825829e-12
2.2816168731e-10
-8.064593368e-12
2.34521889997e-10
-8.67691296325e-12
2.41320303768e-10
-9.28955639226e-12
2.48547807534e-10
-9.89260324248e-12
2.56185867e-10
-1.04731294808e-11
2.64204274178e-10
-1.10149285661e-11
2.72558837347e-10
-1.14983939313e-11
2.81189200783e-10
-1.190065549e-11
2.90017038242e-10
-1.21960699225e-11
2.98944921857e-10
-1.23571553451e-11
3.07856201453e-10
-1.23560280502e-11
3.16616221911e-10
-1.21663381548e-11
3.25075138955e-10
-1.17656127887e-11
3.33072457544e-10
-1.11378088726e-11
3.40443210497e-10
-1.02757695444e-11
3.47025438249e-10
-9.18319587101e-12
3.5266836161e-10
-7.87572266719e-12
3.57240422907e-10
-6.3807609958e-12
3.60636279705e-10
-4.73596108221e-12
3.62781932762e-10
-2.98643788551e-12
3.63637462111e-10
-1.18120549609e-12
3.63197266352e-10
6.30535131655e-13
3.61488120127e-10
2.40261033578e-12
3.58565658103e-10
4.09414360734e-12
3.54509963629e-10
5.67078859169e-12
3.49420844303e-10
7.10508646491e-12
3.43413180517e-10
8.37625822443e-12
3.3661252157e-10
9.46976511511e-12
3.29150949093e-10
1.03768747653e-11
3.21163162552e-10
1.10943292602e-11
3.12782756048e-10
1.16240842484e-11
3.04138720003e-10
1.19730130458e-11
2.95352271973e-10
1.21524592757e-11
2.86534166255e-10
1.21775645959e-11
2.77782631004e-10
1.20663692795e-11
2.69182037827e-10
1.18387526343e-11
2.60802335172e-10
1.1515324574e-11
2.52699198197e-10
1.11163888037e-11
2.4491478171e-10
1.06610763566e-11
2.37478923504e-10
1.0166708248e-11
2.30410633049e-10
9.64840286325e-12
2.23719712784e-10
9.11890829533e-12
2.17408385319e-10
8.58861773965e-12
2.1147283368e-10
8.06571710736e-12
2.05904594068e-10
7.55641542791e-12
2.0069176958e-10
7.06521610642e-12
1.95820054854e-10
6.59519727388e-12
1.91273577502e-10
6.14827954292e-12
1.87035571336e-10
5.72546822715e-12
1.83088901876e-10
5.32706372268e-12
1.7941646588e-10
4.95283850375e-12
1.76001486676e-10
4.60218212389e-12
1.72827724819e-10
4.27421735904e-12
1.69879621698e-10
3.96789133021e-12
1.67142390642e-10
3.68204566208e-12
1.64602068002e-10
3.41546946665e-12
1.62245533874e-10
3.16693861698e-12
1.6006051057e-10
2.93524424502e-12
1.58035544699e-10
2.71921300336e-12
1.56159977721e-10
2.51772113218e-12
1.54423908134e-10
2.32970408051e-12
1.52818147917e-10
2.15416305402e-12
1.51334174487e-10
1.99016970992e-12
1.49964079187e-10
1.83686997471e-12
1.48700512157e-10
1.6934879467e-12
1.47536623294e-10
1.55933072896e-12
1.46465997848e-10
1.43379516367e-12
1.45482585021e-10
1.31637746545e-12
1.44580616574e-10
1.2066870466e-12
1.43754512044e-10
1.10446605224e-12
1.42998765397e-10
1.00961667419e-12
1.42307807135e-10
9.222388597e-13
1.41675833568e-10
8.42681999173e-13
1.41096593832e-10
7.71615223842e-13
1.40563123186e-10
7.10122412563e-13
1.40067412136e-10
6.59829175442e-13
1.39600005972e-10
6.23069064091e-13
1.39149550158e-10
6.03090495237e-13
1.3870235444e-10
6.04281750238e-13
1.38242203815e-10
6.32308331296e-13
1.37751051948e-10
6.9378169201e-13
1.37212235473e-10
7.94186363949e-13
1.36621072238e-10
9.29062022749e-13
1.05203387064e-12
9.76228310882e-10
1.8987695686e-10
9.62924907206e-10
3.06386981387e-10
9.05865688823e-10
3.00388965859e-10
8.33205112632e-10
2.58574181428e-10
7.59941672028e-10
2.13323932251e-10
6.92496378902e-10
1.73786077148e-10
6.32951404962e-10
1.41517748317e-10
5.8142201979e-10
1.1578841561e-10
5.37234254879e-10
9.53722443503e-11
4.99473622622e-10
7.91133976499e-11
4.6722357384e-10
6.60670071746e-11
4.39657344653e-10
5.55008994068e-11
4.16063536849e-10
4.68592192092e-11
3.95843720158e-10
3.97221671275e-11
3.78499755167e-10
3.37718644988e-11
3.63618673811e-10
2.87659591998e-11
3.50858331108e-10
2.4517998241e-11
3.39934936101e-10
2.08830682487e-11
3.30612655292e-10
1.77473401547e-11
3.22695120021e-10
1.502044465e-11
3.16018555623e-10
1.26298826615e-11
3.10446242363e-10
1.05168971392e-11
3.05864049909e-10
8.63339745891e-12
3.02176829824e-10
6.93964647786e-12
2.99305491567e-10
5.40250427712e-12
2.97184623192e-10
3.99408184112e-12
2.95760546781e-10
2.69069954086e-12
2.94989721757e-10
1.47207479033e-12
2.94837426872e-10
3.20684148948e-13
2.9527666551e-10
-7.7873979313e-13
2.96287248017e-10
-1.83960344643e-12
2.97855014568e-10
-2.87376299649e-12
2.99971166892e-10
-3.89176658262e-12
3.02631680004e-10
-4.90303460868e-12
3.05836767499e-10
-5.9159848179e-12
3.09590375154e-10
-6.93810536371e-12
3.13899677198e-10
-7.97597622589e-12
3.18774548642e-10
-9.03523676113e-12
3.24226984771e-10
-1.01204950851e-11
3.30270436465e-10
-1.12351731055e-11
3.36919026679e-10
-1.23812798225e-11
3.44186610717e-10
-1.35591049949e-11
3.52085640398e-10
-1.4766826258e-11
3.6062579217e-10
-1.60000256561e-11
3.6981232162e-10
-1.72511176205e-11
3.79644115097e-10
-1.85087004157e-11
3.90111424079e-10
-1.975685857e-11
4.01193293614e-10
-2.09744652216e-11
4.12854733552e-10
-2.21345612011e-11
4.25043733813e-10
-2.32039200138e-11
4.3768829038e-10
-2.41429412179e-11
4.50693685671e-10
-2.49060411326e-11
4.63940344837e-10
-2.5442719237e-11
4.77282656679e-10
-2.56994572598e-11
4.90549182481e-10
-2.5622544056e-11
5.03544658561e-10
-2.51618047342e-11
5.16054105393e-10
-2.42750506751e-11
5.27849178367e-10
-2.2932873675e-11
5.38696631208e-10
-2.11232153098e-11
5.48368438913e-10
-1.8854997871e-11
5.56652787649e-10
-1.6160067433e-11
5.63364864334e-10
-1.30928357229e-11
5.68356259065e-10
-9.72735619279e-12
5.71521913868e-10
-6.15209558549e-12
5.72803924128e-10
-2.46322134341e-12
5.72192043052e-10
1.24240794927e-12
5.69721283237e-10
4.87335926962e-12
5.65467386514e-10
8.348027063e-12
5.59541029005e-10
1.15971306776e-11
5.52081507652e-10
1.45645906092e-11
5.43250409626e-10
1.72073375698e-11
5.33225505754e-10
1.94946492345e-11
5.22194920248e-10
2.14074397592e-11
5.10351551092e-10
2.29376775128e-11
4.97887733617e-10
2.40878806948e-11
4.84990217707e-10
2.48705081071e-11
4.71835612592e-10
2.53070439191e-11
4.58586504105e-10
2.54266532133e-11
4.4538844173e-10
2.52644125078e-11
4.3236793202e-10
2.48592440654e-11
4.19631477697e-10
2.4251761536e-11
4.07265599634e-10
2.34822504983e-11
3.95337693578e-10
2.25889670313e-11
3.83897522604e-10
2.16068648502e-11
3.72979129565e-10
2.05667824957e-11
3.62602967961e-10
1.94950574459e-11
3.52778081603e-10
1.84134925265e-11
3.43504205283e-10
1.73395827089e-11
3.34773699492e-10
1.62869112713e-11
3.26573269363e-10
1.52656370209e-11
3.1888544638e-10
1.4283011694e-11
3.11689833086e-10
1.33438848896e-11
3.04964124331e-10
1.24511695717e-11
2.98684927287e-10
1.16062538649e-11
2.92828405574e-10
1.08093537511e-11
2.87370774186e-10
1.00598074648e-11
2.82288670021e-10
9.35631583075e-12
2.77559421178e-10
8.69713482368e-12
2.73161234651e-10
8.08022712813e-12
2.69073319763e-10
7.50337957808e-12
2.65275961167e-10
6.96429267314e-12
2.61750553266e-10
6.46064784655e-12
2.58479604957e-10
5.99015720867e-12
2.55446722248e-10
5.55059994334e-12
2.52636573914e-10
5.13984868304e-12
2.5003484459e-10
4.75588882846e-12
2.47628177761e-10
4.39683313312e-12
2.45404110752e-10
4.06093374264e-12
2.43351002137e-10
3.74659344887e-12
2.41457951897e-10
3.45237800996e-12
2.3971471306e-10
3.17703116153e-12
2.38111593586e-10
2.91949424611e-12
2.366393457e-10
2.67893235681e-12
2.35289039935e-10
2.45476938738e-12
2.34051919797e-10
2.24673450156e-12
2.32919233389e-10
2.0549231074e-12
2.31882037954e-10
1.87987540141e-12
2.30930975804e-10
1.72267550655e-12
2.30056024004e-10
1.58507249493e-12
2.2924623127e-10
1.46962038912e-12
2.28489476232e-10
1.37982277328e-12
2.27772324804e-10
1.3202408476e-12
2.2708014664e-10
1.29645909186e-12
2.26397807627e-10
1.3146468405e-12
2.25711522686e-10
1.38006649289e-12
2.25012864716e-10
1.49284450398e-12
2.2430520991e-10
1.63671715413e-12
1.75210305943e-12
9.71718930885e-10
1.5565802346e-10
9.86459247461e-10
2.91646659149e-10
9.67642572866e-10
3.19205634908e-10
9.26885393205e-10
2.99331355443e-10
8.76049850417e-10
2.64159469213e-10
8.22669935358e-10
2.27165986278e-10
7.70908502917e-10
1.93279174782e-10
7.22810771209e-10
1.63886141331e-10
6.79200645624e-10
1.38982363953e-10
6.40236986442e-10
1.18077050866e-10
6.05739257514e-10
1.00564730155e-10
5.7537132857e-10
8.58688224262e-11
5.48741864879e-10
7.3488676996e-11
5.25456952549e-10
6.30070735774e-11
5.05145934279e-10
5.4082876912e-11
4.87472539835e-10
4.64393478124e-11
4.72138171338e-10
3.98523609355e-11
4.58881187218e-10
3.41400465959e-11
4.47474306825e-10
2.91542148089e-11
4.37721283306e-10
2.47734624701e-11
4.29453445669e-10
2.08977146409e-11
4.22526407451e-10
1.74439297489e-11
4.16817073318e-10
1.43427260379e-11
4.12220986331e-10
1.15357279742e-11
4.08650012973e-10
8.97347221487e-12
4.06030341297e-10
6.61374818127e-12
4.04300758472e-10
4.42027712445e-12
4.03411171732e-10
2.36165640038e-12
4.03321337462e-10
4.1051341565e-13
4.03999765492e-10
-1.45717267864e-12
4.05422766395e-10
-3.26260903464e-12
4.0757361605e-10
-5.02461713839e-12
4.10441810273e-10
-6.75996506624e-12
4.14022383278e-10
-8.48361161117e-12
4.18315264592e-10
-1.02088698326e-11
4.23324648594e-10
-1.19474927252e-11
4.2905834945e-10
-1.3709680057e-11
4.35527112361e-10
-1.55040022129e-11
4.42743849363e-10
-1.73372341464e-11
4.50722765029e-10
-1.92140902949e-11
4.59478334232e-10
-2.11368499663e-11
4.6902409156e-10
-2.3104862629e-11
4.79371190297e-10
-2.51139246246e-11
4.90526689714e-10
-2.71555239871e-11
5.02491533715e-10
-2.92159597972e-11
5.15258194152e-10
-3.12753582677e-11
5.28807970227e-10
-3.33066313056e-11
5.43107964751e-10
-3.52744556587e-11
5.58107800417e-10
-3.71343920702e-11
5.73736197541e-10
-3.88323116724e-11
5.89897607729e-10
-4.03043453425e-11
6.0646918313e-10
-4.14776099455e-11
6.23298448363e-10
-4.22719774618e-11
6.40202117631e-10
-4.26031192088e-11
6.56966540104e-10
-4.23869590447e-11
6.73350238175e-10
-4.15454953157e-11
6.89088900527e-10
-4.00137057398e-11
7.03902991067e-10
-3.77469573615e-11
7.17507834715e-10
-3.47280528235e-11
7.2962566553e-10
-3.09728235831e-11
7.39998721337e-10
-2.65331195121e-11
7.4840212883e-10
-2.14962411995e-11
7.54655158454e-10
-1.5980385833e-11
7.5862955168e-10
-1.01264911065e-11
7.60254070293e-10
-4.0877446944e-12
7.59515088822e-10
1.98138219908e-12
7.56453726101e-10
7.93471235992e-12
7.51160464729e-10
1.36412765884e-11
7.43768307099e-10
1.89892745132e-11
7.34445344946e-10
2.38875373494e-11
7.23387308752e-10
2.82653570767e-11
7.10810349482e-10
3.20715908978e-11
6.96944091107e-10
3.52736799367e-11
6.82024914388e-10
3.78568357616e-11
6.66289469953e-10
3.98233066628e-11
6.49968521006e-10
4.11914388449e-11
6.33281320515e-10
4.19942266615e-11
6.16430786032e-10
4.22771705871e-11
5.99599721346e-10
4.20954608448e-11
5.82948253773e-10
4.15106961504e-11
5.66612534534e-10
4.05874661973e-11
5.5070462436e-10
3.93901470405e-11
5.35313385682e-10
3.79801930187e-11
5.20506143972e-10
3.64140947998e-11
5.06330864095e-10
3.47420514991e-11
4.92818605476e-10
3.30073060395e-11
4.79986058357e-10
3.12460304045e-11
4.67838011383e-10
2.94876211708e-11
4.5636964769e-10
2.7755267113e-11
4.45568608208e-10
2.60666692533e-11
4.35416793462e-10
2.44348197254e-11
4.25891899404e-10
2.28687727163e-11
4.16968698777e-10
2.13743643908e-11
4.08620089562e-10
1.99548576533e-11
4.00817936805e-10
1.86115014134e-11
3.9353373598e-10
1.73440034944e-11
3.86739125142e-10
1.61509221331e-11
3.80406271387e-10
1.50299842811e-11
3.74508154161e-10
1.39783402621e-11
3.69018765259e-10
1.29927645805e-11
3.63913242074e-10
1.20698121243e-11
3.59167948176e-10
1.12059381705e-11
3.54760512419e-10
1.03975895304e-11
3.50669835875e-10
9.64127318755e-12
3.46876073592e-10
8.93360778765e-12
3.43360596809e-10
8.27136255249e-12
3.40105939526e-10
7.65148746694e-12
3.37095732341e-10
7.07113808974e-12
3.34314625149e-10
6.52769790518e-12
3.31748199618e-10
6.01880091326e-12
3.29382871277e-10
5.54235697606e-12
3.27205780665e-10
5.09658244011e-12
3.2520467216e-10
4.68003854696e-12
3.23367759114e-10
4.29168023355e-12
3.21683573673e-10
3.93091785368e-12
3.20140800716e-10
3.5976940988e-12
3.18728096823e-10
3.29257745516e-12
3.17433899227e-10
3.01687140679e-12
3.16246236335e-10
2.77273384361e-12
3.1515256394e-10
2.56329142008e-12
3.14139671813e-10
2.39271374015e-12
3.13193739741e-10
2.26617200649e-12
3.12300674294e-10
2.1895239063e-12
3.11446927801e-10
2.16839302154e-12
3.10621055551e-10
2.20593873827e-12
3.09816067238e-10
2.29783304674e-12
3.09031148715e-10
2.4216360022e-12
2.51828629545e-12
9.63864812829e-10
1.29293207679e-10
9.87387139155e-10
2.68124326582e-10
9.89096968973e-10
3.17495798948e-10
9.71086086548e-10
3.17342231748e-10
9.40307416768e-10
2.94938132728e-10
9.02814564209e-10
2.64658832475e-10
8.62809477031e-10
2.33284255551e-10
8.22945824791e-10
2.03749787145e-10
7.84785173705e-10
1.7714300861e-10
7.4917041039e-10
1.53691807756e-10
7.16490308197e-10
1.3324482593e-10
6.86856384789e-10
1.15502739423e-10
6.60217531402e-10
1.0012752398e-10
6.36432772621e-10
8.67918259617e-11
6.15316614804e-10
7.51990283394e-11
5.96666745372e-10
6.50892108635e-11
5.80280504542e-10
5.62385953933e-11
5.65964289715e-10
4.8456255061e-11
5.53538561326e-10
4.15799368469e-11
5.42840150121e-10
3.54718673389e-11
5.33722942144e-10
3.00149162964e-11
5.26057618657e-10
2.51092469325e-11
5.1973087373e-10
2.06694646839e-11
5.14644370517e-10
1.66222249321e-11
5.10713594599e-10
1.29042419087e-11
5.07866697803e-10
9.46063879163e-12
5.06043384851e-10
6.24358393533e-12
5.05193869321e-10
3.21116584698e-12
5.05277908925e-10
3.2646779681e-13
5.06263919729e-10
-2.44318941353e-12
5.08128160332e-10
-5.12685546847e-12
5.10853979211e-10
-7.75044172236e-12
5.14431107915e-10
-1.03370993287e-11
5.18854982641e-10
-1.29074917166e-11
5.24126074638e-10
-1.5479966997e-11
5.30249207371e-10
-1.80706303757e-11
5.37232835592e-10
-2.06933129026e-11
5.45088258513e-10
-2.33594294162e-11
5.53828736008e-10
-2.60777155336e-11
5.63468473449e-10
-2.88538311808e-11
5.74021437463e-10
-3.16898169228e-11
5.85499962349e-10
-3.45833898975e-11
5.97913105479e-10
-3.75270695245e-11
6.11264711082e-10
-4.05071306944e-11
6.2555114656e-10
-4.35023956733e-11
6.40758686132e-10
-4.64828974947e-11
6.56860535293e-10
-4.9408479361e-11
6.73813519568e-10
-5.22274380538e-11
6.91554504889e-10
-5.487537475e-11
7.09996677614e-10
-5.72744810124e-11
7.29025889806e-10
-5.93335534509e-11
7.48497367828e-10
-6.09490832356e-11
7.68233180416e-10
-6.20077847485e-11
7.88020950926e-10
-6.23908839348e-11
8.07614352759e-10
-6.19803547363e-11
8.26735918387e-10
-6.0667054587e-11
8.45082591292e-10
-5.83603722694e-11
8.62334237068e-10
-5.49985969674e-11
8.7816500024e-10
-5.05588103227e-11
8.92256966772e-10
-4.50647852583e-11
9.04315117364e-10
-3.85912664357e-11
9.14082127946e-10
-3.12632496572e-11
9.21351333961e-10
-2.32495916263e-11
9.25976284989e-10
-1.47514440839e-11
9.27875850574e-10
-5.98731459287e-12
9.27034681077e-10
2.82254497475e-12
9.23499677218e-10
1.14697071578e-11
9.17373664594e-10
1.97672780169e-11
9.08807550082e-10
2.75553759681e-11
8.97991974486e-10
3.47030983731e-11
8.85149061734e-10
4.1108254083e-11
8.70524478002e-10
4.66961580692e-11
8.54379771506e-10
5.14183693769e-11
8.36984896781e-10
5.52516932494e-11
8.18610900697e-10
5.81972855942e-11
7.99522892412e-10
6.02794303097e-11
7.79973557999e-10
6.15435447778e-11
7.60197553602e-10
6.20531593773e-11
7.40407089995e-10
6.18859096463e-11
7.20788916772e-10
6.11288554537e-11
7.01502762271e-10
5.98736077047e-11
6.82681132769e-10
5.8211764494e-11
6.64430257169e-10
5.62310575016e-11
6.46831899224e-10
5.40124425328e-11
6.29945746243e-10
5.16281951243e-11
6.1381210885e-10
4.91409348793e-11
5.98454713689e-10
4.66034177454e-11
5.83883426105e-10
4.40589016043e-11
5.7009679224e-10
4.15418944219e-11
5.57084334832e-10
3.90791206382e-11
5.44828571621e-10
3.66905773753e-11
5.33306750637e-10
3.43905885467e-11
5.22492313278e-10
3.21887969466e-11
5.12356106525e-10
3.00910599096e-11
5.02867370824e-10
2.81002328782e-11
4.93994532204e-10
2.62168381075e-11
4.85705826684e-10
2.44396238405e-11
4.77969783393e-10
2.27660239347e-11
4.70755590124e-10
2.11925300407e-11
4.64033362355e-10
1.97149889958e-11
4.57774333643e-10
1.83288375996e-11
4.51950982717e-10
1.70292859709e-11
4.46537109821e-10
1.58114593975e-11
4.4150787274e-10
1.46705073355e-11
4.36839790734e-10
1.36016869467e-11
4.32510723015e-10
1.2600427511e-11
4.28499826721e-10
1.1662381081e-11
4.24787498183e-10
1.07834640315e-11
4.21355300047e-10
9.95989352495e-12
4.1818587601e-10
9.18822251916e-12
4.15262854048e-10
8.46537658846e-12
4.12570738581e-10
7.7886956506e-12
4.10094791505e-10
7.15598345497e-12
4.07820902188e-10
6.56556748261e-12
4.05735446686e-10
6.01637138932e-12
4.03825137717e-10
5.5080012165e-12
4.02076868805e-10
5.04084463369e-12
4.00477559785e-10
4.61617883075e-12
3.99014016525e-10
4.23627565455e-12
3.97672827017e-10
3.90447965546e-12
3.96440329109e-10
3.62521057598e-12
3.95302703307e-10
3.40379698234e-12
3.94246263328e-10
3.24596334721e-12
3.93258022449e-10
3.15663369798e-12
3.92326540011e-10
3.13742129338e-12
3.91442675012e-10
3.18169834305e-12
3.90598503298e-10
3.26580805009e-12
3.33672424321e-12
9.57440233694e-10
1.09352970885e-10
9.82150393116e-10
2.43414160595e-10
9.94195433372e-10
3.05450752298e-10
9.90849257016e-10
3.20688401631e-10
9.75273165195e-10
3.10514217899e-10
9.51581875792e-10
2.88350115128e-10
9.23237938472e-10
2.61628186078e-10
8.92783284702e-10
2.34204434105e-10
8.61962406465e-10
2.07963880033e-10
8.31915388571e-10
1.83738818833e-10
8.03350003859e-10
1.61810203825e-10
7.76674817048e-10
1.42177919412e-10
7.52096342962e-10
1.2470599124e-10
7.29687909976e-10
1.09200252115e-10
7.09437600406e-10
9.54493310694e-11
6.91281185919e-10
8.32456185033e-11
6.75124487543e-10
7.23952869137e-11
6.6085836513e-10
6.27223706105e-11
6.48368611727e-10
5.40696833786e-11
6.37542349985e-10
4.62981222007e-11
6.28272043129e-10
3.92852162637e-11
6.20457891255e-10
3.29233919114e-11
6.14009144659e-10
2.71182043772e-11
6.08844699516e-10
2.17866631676e-11
6.04893225697e-10
1.68557088175e-11
6.02092996486e-10
1.22608610936e-11
6.00391534408e-10
7.94503910911e-12
5.99745148819e-10
3.85754454555e-12
6.00118413953e-10
-4.68042072829e-14
6.01483615932e-10
-3.80839822861e-12
6.03820184268e-10
-7.46343059272e-12
6.07114119694e-10
-1.10443838693e-11
6.11357412114e-10
-1.45803983812e-11
6.16547442593e-10
-1.80975287114e-11
6.22686357643e-10
-2.16188884135e-11
6.29780399696e-10
-2.51646786065e-11
6.378391735e-10
-2.87520926524e-11
6.46874824175e-10
-3.23950857537e-11
6.5690109867e-10
-3.61039953541e-11
6.67932258502e-10
-3.98849959349e-11
6.79981807982e-10
-4.37393708614e-11
6.93060999254e-10
-4.76625850907e-11
7.0717707361e-10
-5.16431471997e-11
7.22331199145e-10
-5.56612588754e-11
7.38516068656e-10
-5.96872671008e-11
7.55713131232e-10
-6.36799611978e-11
7.7388944815e-10
-6.75847965816e-11
7.92994192245e-10
-7.13321815928e-11
8.12954852748e-10
-7.4836033833e-11
8.33673268884e-10
-7.7992894865e-11
8.55021696707e-10
-8.06819781571e-11
8.76839214318e-10
-8.27665969332e-11
8.98928882853e-10
-8.40974486401e-11
9.21056188972e-10
-8.45181847631e-11
9.42949371819e-10
-8.38735317589e-11
9.64302249336e-10
-8.20199258892e-11
9.84780068845e-10
-7.88381853694e-11
1.00402868799e-09
-7.42472097517e-11
1.02168703395e-09
-6.82171502737e-11
1.03740230441e-09
-6.07800504132e-11
1.05084680638e-09
-5.20357642281e-11
1.06173477719e-09
-4.21512178193e-11
1.06983717431e-09
-3.13519880402e-11
1.07499249314e-09
-1.990676446e-11
1.07711231832e-09
-8.10714380909e-12
1.07618140296e-09
3.75345376504e-12
1.07225317157e-09
1.53979295293e-11
1.06544220236e-09
2.65782359904e-11
1.0559152744e-09
3.70822908043e-11
1.04388215531e-09
4.67362028246e-11
1.02958673772e-09
5.5403655926e-11
1.0132986448e-09
6.29842344829e-11
9.9530514946e-10
6.94118478102e-11
9.75903206866e-10
7.46536188439e-11
9.55391530321e-10
7.8708945325e-11
9.34062849165e-10
8.16080950831e-11
9.12196676885e-10
8.34097013002e-11
8.90053013543e-10
8.41968077476e-11
8.67867377199e-10
8.40715319106e-11
8.4584742174e-10
8.31487978006e-11
8.2417120522e-10
8.15498121081e-11
8.02986985612e-10
7.9395972991e-11
7.82414284389e-10
7.68037485905e-11
7.62545891031e-10
7.3880826699e-11
7.43450476308e-10
7.07236015325e-11
7.25175520451e-10
6.74158832365e-11
7.0775032182e-10
6.40286096077e-11
6.91188916224e-10
6.06203010903e-11
6.75492795229e-10
5.72380098796e-11
6.60653359554e-10
5.39185512782e-11
6.46654079179e-10
5.06898531405e-11
6.33472356952e-10
4.75723065288e-11
6.21081108554e-10
4.45800414028e-11
6.09450081418e-10
4.17220833609e-11
5.98546939889e-10
3.90033709319e-11
5.88338145607e-10
3.64256290937e-11
5.78789661415e-10
3.39881048798e-11
5.69867505446e-10
3.16881768769e-11
5.61538179361e-10
2.95218531994e-11
5.53768992115e-10
2.74841734063e-11
5.46528297608e-10
2.55695293462e-11
5.39785662043e-10
2.37719188462e-11
5.33511974155e-10
2.20851446564e-11
5.27679509353e-10
2.05029695689e-11
5.22261956694e-10
1.90192370908e-11
5.17234415989e-10
1.76279657596e-11
5.12573370699e-10
1.63234239685e-11
5.0825664114e-10
1.51001912459e-11
5.04263321287e-10
1.39532110924e-11
5.00573701683e-10
1.28778399022e-11
4.97169180167e-10
1.18698959479e-11
4.94032161697e-10
1.09257120374e-11
4.91145948159e-10
1.00421949863e-11
4.88494619157e-10
9.21689456398e-12
4.86062905035e-10
8.44808368113e-12
4.83836054349e-10
7.73485017476e-12
4.81799699466e-10
7.07719789877e-12
4.79939726549e-10
6.47615025593e-12
4.78242159744e-10
5.93384110776e-12
4.7669307447e-10
5.45356374223e-12
4.75278560588e-10
5.03972346336e-12
4.73984761292e-10
4.69759551582e-12
4.72798010616e-10
4.4327135334e-12
4.71705060174e-10
4.24958396152e-12
4.70693260835e-10
4.14922076356e-12
4.69750181968e-10
4.12477751836e-12
4.68861277258e-10
4.15471309376e-12
4.19465328189e-12
9.52794407016e-10
9.40585604399e-11
9.76002019135e-10
2.20206541518e-10
9.92804693614e-10
2.88648071013e-10
9.98514733597e-10
3.14978354877e-10
9.93779278751e-10
3.15249665836e-10
9.81021224919e-10
3.01108161967e-10
9.62792180717e-10
2.79857223251e-10
9.41230946532e-10
2.5576566125e-10
9.17972211274e-10
2.31222608249e-10
8.94203868696e-10
2.07507154366e-10
8.70758093076e-10
1.85255972394e-10
8.48197608608e-10
1.64738396823e-10
8.26886794656e-10
1.46016798122e-10
8.0704698629e-10
1.29040053399e-10
7.88798235117e-10
1.13698075146e-10
7.72190302103e-10
9.98535444045e-11
7.57225385504e-10
8.73601963829e-11
7.43874628048e-10
7.6073120919e-11
7.32089998357e-10
6.58543059026e-11
7.21812761348e-10
5.65753520235e-11
7.12979449453e-10
4.81185209517e-11
7.0552601271e-10
4.03768214257e-11
6.99390648474e-10
3.32535613627e-11
6.94515678611e-10
2.66616257586e-11
6.90848743102e-10
2.05226370339e-11
6.88343505676e-10
1.47660912079e-11
6.86960012866e-10
9.32852459211e-12
6.86664807821e-10
4.15274225296e-12
6.87430870618e-10
-8.12874345617e-13
6.89237431545e-10
-5.61496649088e-12
6.92069693494e-10
-1.02956998563e-11
6.95918485957e-10
-1.48931836112e-11
7.00779856061e-10
-1.94417757051e-11
7.06654600019e-10
-2.39722798061e-11
7.135477309e-10
-2.85120263142e-11
7.21467872785e-10
-3.30848273554e-11
7.30426566207e-10
-3.77107927363e-11
7.40437464907e-10
-4.24059908615e-11
7.51515399293e-10
-4.71819358336e-11
7.63675277531e-10
-5.20448798858e-11
7.76930790998e-10
-5.69948895864e-11
7.91292887177e-10
-6.20246859974e-11
8.06767970426e-10
-6.71182345658e-11
8.23355790186e-10
-7.22490820649e-11
8.41046978345e-10
-7.73784579256e-11
8.5982020441e-10
-8.24531890997e-11
8.79638931454e-10
-8.7403524579e-11
9.00447780942e-10