/*--------------------------------*- C++ -*----------------------------------*\
  =========                 |
  \\      /  F ield         | OpenFOAM: The Open Source CFD Toolbox
   \\    /   O peration     | Website:  https://openfoam.org
    \\  /    A nd           | Version:  7
     \\/     M anipulation  |
\*---------------------------------------------------------------------------*/
FoamFile
{
    version     2.0;
    format      ascii;
    class       volVectorField;
    location    "3480";
    object      U;
}
// * * * * * * * * * * * * * * * * * * * * * * * * * * * * * * * * * * * * * //

dimensions      [0 1 -1 0 0 0 0];

internalField   nonuniform List<vector> 
8192
(
(0.00104349041663 0.000156509583373 0)
(0.000759411155726 0.000127569675942 0)
(0.00054945312589 8.23883507278e-05 0)
(0.00041419396664 5.28708053743e-05 0)
(0.000326325959134 3.499719892e-05 0)
(0.000267204324155 2.41244327124e-05 0)
(0.000225771851357 1.73080366548e-05 0)
(0.000195598400453 1.28654107852e-05 0)
(0.000172881973501 9.85101270631e-06 0)
(0.00015530435809 7.72659926873e-06 0)
(0.00014140003468 6.17772074233e-06 0)
(0.000130207608875 5.01470170636e-06 0)
(0.000121073747062 4.11915679532e-06 0)
(0.000113539943799 3.41464320327e-06 0)
(0.000107275120721 2.85017665618e-06 0)
(0.000102034224429 2.39071646647e-06 0)
(9.76319928167e-05 2.01151202559e-06 0)
(9.39258332329e-05 1.69464449142e-06 0)
(9.08043350809e-05 1.42685065106e-06 0)
(8.81793651374e-05 1.19811634546e-06 0)
(8.59805017322e-05 1.00074418172e-06 0)
(8.41510337076e-05 8.28721041313e-07 0)
(8.26450303227e-05 6.7727962713e-07 0)
(8.14251596583e-05 5.42588416145e-07 0)
(8.04610403948e-05 4.2152833283e-07 0)
(7.97279805361e-05 3.11529131292e-07 0)
(7.92060015275e-05 2.10447617325e-07 0)
(7.88790760929e-05 1.16475708842e-07 0)
(7.87345283241e-05 2.80701218258e-08 0)
(7.87625584351e-05 -5.61019795246e-08 0)
(7.89558639447e-05 -1.3720506193e-07 0)
(7.93093357235e-05 -2.16268008008e-07 0)
(7.98198127566e-05 -2.94210047166e-07 0)
(8.04858826391e-05 -3.71860557246e-07 0)
(8.1307716359e-05 -4.49973551182e-07 0)
(8.22869272489e-05 -5.29237358047e-07 0)
(8.34264446348e-05 -6.10279640569e-07 0)
(8.47303926526e-05 -6.93667544088e-07 0)
(8.62039640218e-05 -7.79902506776e-07 0)
(8.78532773368e-05 -8.69408965128e-07 0)
(8.968520468e-05 -9.62515972856e-07 0)
(9.17071541892e-05 -1.05943053391e-06 0)
(9.39267897479e-05 -1.16020139601e-06 0)
(9.63516675436e-05 -1.26467212158e-06 0)
(9.8988767298e-05 -1.37242269264e-06 0)
(0.00010184389533 -1.48269973442e-06 0)
(0.000104920938303 -1.59433698192e-06 0)
(0.000108220952049 -1.70566988152e-06 0)
(0.000111741080875 -1.81445147996e-06 0)
(0.000115473321092 -1.91778075115e-06 0)
(0.00011940316933 -2.01205905708e-06 0)
(0.000123508231675 -2.09299450602e-06 0)
(0.000127756911686 -2.15567647939e-06 0)
(0.00013210733893 -2.19474161406e-06 0)
(0.00013650673627 -2.20464658501e-06 0)
(0.000140891442475 -2.18005063152e-06 0)
(0.000145187793927 -2.1162921437e-06 0)
(0.000149314014303 -2.00992003695e-06 0)
(0.000153183157916 -1.85921605441e-06 0)
(0.000156707004622 -1.66462400554e-06 0)
(0.000159800628884 -1.42899470802e-06 0)
(0.000162387197313 -1.15756949609e-06 0)
(0.000164402436252 -8.57666767272e-07 0)
(0.000165798204461 -5.38100516574e-07 0)
(0.000166544733049 -2.08429065776e-07 0)
(0.000166631336333 1.21822762035e-07 0)
(0.000166065684051 4.4382443806e-07 0)
(0.000164871967187 7.49885319798e-07 0)
(0.000163088401988 1.03367086516e-06 0)
(0.000160764489485 1.29023088812e-06 0)
(0.000157958332915 1.51591341666e-06 0)
(0.00015473416424 1.7082417222e-06 0)
(0.000151160100163 1.86580780688e-06 0)
(0.00014730607504 1.98820201154e-06 0)
(0.000143241888657 2.07596855774e-06 0)
(0.000139035343996 2.13056001326e-06 0)
(0.000134750506117 2.15426171139e-06 0)
(0.000130446160543 2.15006783013e-06 0)
(0.000126174569505 2.1215074609e-06 0)
(0.000121980611539 2.07243517681e-06 0)
(0.00011790135102 2.00681054217e-06 0)
(0.000113966033264 1.92849302419e-06 0)
(0.00011019645322 1.84107349976e-06 0)
(0.000106607612385 1.74775452275e-06 0)
(0.000103208564009 1.65128176789e-06 0)
(0.000100003349385 1.55392150374e-06 0)
(9.69919429385e-05 1.4574743135e-06 0)
(9.41711448652e-05 1.36331383408e-06 0)
(9.15353818853e-05 1.27243989663e-06 0)
(8.90773959024e-05 1.18553748012e-06 0)
(8.67888152313e-05 1.10303519095e-06 0)
(8.46606132969e-05 1.02515930996e-06 0)
(8.26834658604e-05 9.51981219525e-07 0)
(8.08480207729e-05 8.83457447493e-07 0)
(7.91450949673e-05 8.19462385462e-07 0)
(7.75658126862e-05 7.59814333631e-07 0)
(7.61016974604e-05 7.0429570605e-07 0)
(7.4744728535e-05 6.52668376638e-07 0)
(7.3487370589e-05 6.04685039991e-07 0)
(7.23225838625e-05 5.600974431e-07 0)
(7.12438202814e-05 5.1866215546e-07 0)
(7.02450098792e-05 4.80144502796e-07 0)
(6.93205407453e-05 4.44321105177e-07 0)
(6.84652348705e-05 4.10981443828e-07 0)
(6.76743215594e-05 3.79928725319e-07 0)
(6.69434095306e-05 3.50980331332e-07 0)
(6.62684583674e-05 3.23968016564e-07 0)
(6.56457496111e-05 2.98738070628e-07 0)
(6.50718574467e-05 2.75151561098e-07 0)
(6.45436186209e-05 2.53084860458e-07 0)
(6.40581008878e-05 2.32430589772e-07 0)
(6.36125688939e-05 2.13099236949e-07 0)
(6.3204445919e-05 1.950216818e-07 0)
(6.28312692358e-05 1.78153052528e-07 0)
(6.24906359329e-05 1.6247840613e-07 0)
(6.21801347159e-05 1.48021069756e-07 0)
(6.18972572176e-05 1.34854789842e-07 0)
(6.16392792969e-05 1.23121595367e-07 0)
(6.14030979653e-05 1.13058306548e-07 0)
(6.11850016927e-05 1.0503664744e-07 0)
(6.09803386779e-05 9.96251680629e-08 0)
(6.07830254986e-05 9.76869442171e-08 0)
(6.05848020057e-05 1.00535630878e-07 0)
(6.03740843363e-05 1.10181289368e-07 0)
(6.0134219263e-05 1.29683221791e-07 0)
(5.9841099006e-05 1.63436673132e-07 0)
(5.9461407116e-05 2.16255094039e-07 0)
(5.89677260066e-05 2.7742610144e-07 0)
(0.00121020220897 0.000302816956307 0)
(0.00116040059761 0.000315143169076 0)
(0.00102705408307 0.000238119392497 0)
(0.000887597480226 0.00017185551612 0)
(0.000766842048976 0.000124635917061 0)
(0.000668266850289 9.21825380317e-05 0)
(0.00058917862821 6.97706158242e-05 0)
(0.000525763706452 5.39911938327e-05 0)
(0.000474596269542 4.26090831014e-05 0)
(0.000432950030831 3.41923726508e-05 0)
(0.000398745713738 2.78205776197e-05 0)
(0.000370417080117 2.28928941249e-05 0)
(0.000346782872753 1.90090235443e-05 0)
(0.000326945291682 1.58961509014e-05 0)
(0.000310214738227 1.33640357297e-05 0)
(0.000296055440643 1.12770416402e-05 0)
(0.000284046434725 9.53641488956e-06 0)
(0.000273853487949 8.06883864489e-06 0)
(0.000265208741548 6.81889186862e-06 0)
(0.00025789579608 5.7439815349e-06 0)
(0.000251738658663 4.81087100574e-06 0)
(0.000246593454518 3.99325779701e-06 0)
(0.000242342138589 3.27005383795e-06 0)
(0.000238887671148 2.62414423775e-06 0)
(0.000236150277723 2.04147743211e-06 0)
(0.000234064521694 1.51038849746e-06 0)
(0.000232576992857 1.02108906155e-06 0)
(0.000231644467885 5.65278074943e-07 0)
(0.000231232435676 1.35841628737e-07 0)
(0.000231313907028 -2.73380500277e-07 0)
(0.000231868446468 -6.67776419328e-07 0)
(0.000232881377699 -1.0521038921e-06 0)
(0.000234343124606 -1.43060155386e-06 0)
(0.000236248656041 -1.80707294964e-06 0)
(0.000238597006296 -2.18494675e-06 0)
(0.000241390845817 -2.56731511776e-06 0)
(0.000244636077859 -2.95695068233e-06 0)
(0.000248341436541 -3.35630129087e-06 0)
(0.000252518060305 -3.76746058786e-06 0)
(0.000257179012374 -4.19211146155e-06 0)
(0.000262338716543 -4.63143857999e-06 0)
(0.000268012272911 -5.0860057039e-06 0)
(0.000274214614464 -5.55559347294e-06 0)
(0.00028095946251 -6.03899420688e-06 0)
(0.000288258038113 -6.53376244816e-06 0)
(0.000296117489476 -7.0359240309e-06 0)
(0.00030453900401 -7.53965307297e-06 0)
(0.000313515591233 -8.03693595671e-06 0)
(0.000323029551702 -8.5172543477e-06 0)
(0.000333049690354 -8.96733503349e-06 0)
(0.000343528391376 -9.37103117312e-06 0)
(0.000354398744404 -9.70941401962e-06 0)
(0.000365571992977 -9.96116122976e-06 0)
(0.000376935654464 -1.01033210349e-05 0)
(0.000388352718918 -1.01125045371e-05 0)
(0.000399662350953 -9.96650705061e-06 0)
(0.000410682470954 -9.64628432845e-06 0)
(0.000421214461759 -9.13811771543e-06 0)
(0.000431050027546 -8.43570856281e-06 0)
(0.000439979935198 -7.54186936298e-06 0)
(0.00044780403191 -6.46945721502e-06 0)
(0.00045434162209 -5.2412565334e-06 0)
(0.000459441089672 -3.88868185989e-06 0)
(0.000462987655979 -2.4494207633e-06 0)
(0.000464908412719 -9.64400583276e-07 0)
(0.000465174226216 5.25365246295e-07 0)
(0.000463798647347 1.98149505296e-06 0)
(0.000460834418068 3.3701372285e-06 0)
(0.000456368397909 4.66297556385e-06 0)
(0.000450515717077 5.83748622566e-06 0)
(0.000443413775885 6.8767186803e-06 0)
(0.000435216449336 7.76889139587e-06 0)
(0.000426088621225 8.50700765668e-06 0)
(0.000416201031453 9.08857273809e-06 0)
(0.000405725387904 9.5153824767e-06 0)
(0.000394829744673 9.79328836257e-06 0)
(0.000383674234864 9.93183564781e-06 0)
(0.000372407320466 9.94370917149e-06 0)
(0.000361162750246 9.84398379976e-06 0)
(0.000350057388052 9.64923686273e-06 0)
(0.00033918999872 9.37661826955e-06 0)
(0.000328640981356 9.04298185856e-06 0)
(0.000318472947141 8.66416236799e-06 0)
(0.000308731971337 8.25444780148e-06 0)
(0.000299449316194 7.82625960037e-06 0)
(0.000290643421333 7.39002281275e-06 0)
(0.000282321982786 6.95418966688e-06 0)
(0.000274483980159 6.52537278279e-06 0)
(0.000267121553759 6.10854577049e-06 0)
(0.000260221672735 5.70727578823e-06 0)
(0.000253767567638 5.32396144623e-06 0)
(0.000247739924708 4.96005821742e-06 0)
(0.000242117855256 4.6162808849e-06 0)
(0.000236879662856 4.29277823001e-06 0)
(0.000232003435364 3.98927902786e-06 0)
(0.000227467489636 3.70521089292e-06 0)
(0.000223250695357 3.43979481583e-06 0)
(0.000219332701771 3.19211882797e-06 0)
(0.000215694087898 2.96119426372e-06 0)
(0.000212316453533 2.74599790176e-06 0)
(0.000209182465201 2.54550287033e-06 0)
(0.000206275868444 2.35870081961e-06 0)
(0.000203581475372 2.18461742733e-06 0)
(0.000201085134349 2.02232296842e-06 0)
(0.000198773686947 1.87093933685e-06 0)
(0.000196634915873 1.72964468591e-06 0)
(0.000194657486339 1.59767663091e-06 0)
(0.000192830882351 1.47433485444e-06 0)
(0.00019114533846 1.35898384698e-06 0)
(0.000189591766689 1.25105652699e-06 0)
(0.000188161677531 1.15005949452e-06 0)
(0.000186847093036 1.05558081484e-06 0)
(0.000185640449021 9.67301391625e-07 0)
(0.000184534482316 8.85011325962e-07 0)
(0.000183522097562 8.08633077612e-07 0)
(0.00018259620642 7.38253939964e-07 0)
(0.00018174953005 6.74171269312e-07 0)
(0.000180974353536 6.16955338626e-07 0)
(0.000180262218891 5.67536650588e-07 0)
(0.000179603542606 5.27327319723e-07 0)
(0.000178987147589 4.98389369081e-07 0)
(0.000178399715923 4.83664861169e-07 0)
(0.000177825218942 4.8727595103e-07 0)
(0.000177244517283 5.14858621397e-07 0)
(0.000176635683689 5.73703504678e-07 0)
(0.000175976503949 6.71715946059e-07 0)
(0.000175253316935 8.10854788599e-07 0)
(0.00017447909701 9.50727778652e-07 0)
(0.00122478611896 0.000267828625325 0)
(0.00124105805958 0.000383661161221 0)
(0.00119602598146 0.000347979979919 0)
(0.00111300531293 0.00028447218686 0)
(0.00101961394218 0.000226166034782 0)
(0.000929560352596 0.000179281194694 0)
(0.000848286581673 0.000143033938092 0)
(0.000777198991841 0.000115230369038 0)
(0.000715940015788 9.37963067793e-05 0)
(0.0006634930416 7.7098347878e-05 0)
(0.000618686205735 6.39257414691e-05 0)
(0.000580403787836 5.33987680388e-05 0)
(0.000547661364162 4.48797670429e-05 0)
(0.000519620644485 3.79036946598e-05 0)
(0.000495579824208 3.21278523528e-05 0)
(0.000474955794546 2.72965390616e-05 0)
(0.000457265283148 2.32164217382e-05 0)
(0.000442107691014 1.97393578327e-05 0)
(0.000429150458492 1.67503389166e-05 0)
(0.0004181169762 1.41589497655e-05 0)
(0.000408776752412 1.18932517274e-05 0)
(0.000400937470711 9.89535092481e-06 0)
(0.000394438587054 8.11814858452e-06 0)
(0.00038914616303 6.52292956743e-06 0)
(0.000384948685691 5.07755183663e-06 0)
(0.000381753673446 3.75507174448e-06 0)
(0.000379484908783 2.53268915037e-06 0)
(0.000378080171865 1.39093023191e-06 0)
(0.000377489375123 3.13009362238e-07 0)
(0.000377673019124 -7.15671988355e-07 0)
(0.000378600904657 -1.70791756311e-06 0)
(0.000380251048055 -2.67504420185e-06 0)
(0.000382608756134 -3.62712211957e-06 0)
(0.000385665822014 -4.57315454195e-06 0)
(0.000389419806402 -5.52120348228e-06 0)
(0.000393873371298 -6.47846519248e-06 0)
(0.000399033633505 -7.45129582633e-06 0)
(0.000404911504538 -8.44518527391e-06 0)
(0.000411520981385 -9.46467493558e-06 0)
(0.000418878349591 -1.05132132839e-05 0)
(0.000427001256412 -1.15929416935e-05 0)
(0.000435907607934 -1.27044023667e-05 0)
(0.000445614240713 -1.3846160882e-05 0)
(0.000456135316844 -1.50143385052e-05 0)
(0.000467480392826 -1.62020550326e-05 0)
(0.000479652119498 -1.73987925625e-05 0)
(0.000492643545073 -1.85897055759e-05 0)
(0.000506435019324 -1.9754923817e-05 0)
(0.000520990737387 -2.08689220364e-05 0)
(0.000536255019114 -2.19000630912e-05 0)
(0.000552148495484 -2.28104544955e-05 0)
(0.000568564464673 -2.35562858385e-05 0)
(0.000585365779525 -2.40888250621e-05 0)
(0.00060238272097 -2.43562320672e-05 0)
(0.000619412377062 -2.4306286148e-05 0)
(0.000636220058267 -2.3890011449e-05 0)
(0.000652543208931 -2.30660246168e-05 0)
(0.000668098101607 -2.18052368305e-05 0)
(0.000682589318128 -2.00953503067e-05 0)
(0.000695721644877 -1.79444439949e-05 0)
(0.000707213584999 -1.53829056641e-05 0)
(0.000716811297269 -1.24631019e-05 0)
(0.000724301518975 -9.256523056e-06 0)
(0.000729522030677 -5.84866142144e-06 0)
(0.000732368536317 -2.33243317728e-06 0)
(0.000732797418995 1.19868357179e-06 0)
(0.000730824528825 4.65662054746e-06 0)
(0.00072652074864 7.96298922902e-06 0)
(0.000720005385932 1.10514683323e-05 0)
(0.00071143842346 1.38685933274e-05 0)
(0.000701012427058 1.63735013083e-05 0)
(0.000688944585843 1.85372251838e-05 0)
(0.000675469072642 2.03419612957e-05 0)
(0.000660829741658 2.17804843347e-05 0)
(0.000645273142214 2.28556575636e-05 0)
(0.000629041888847 2.35798535378e-05 0)
(0.000612368531391 2.39740820446e-05 0)
(0.000595470154686 2.40666993978e-05 0)
(0.000578543965334 2.38917003438e-05 0)
(0.0005617640792 2.34867178878e-05 0)
(0.000545279622219 2.28909351104e-05 0)
(0.000529214129492 2.21431291533e-05 0)
(0.000513666107656 2.12800277683e-05 0)
(0.000498710538357 2.03350867829e-05 0)
(0.000484401057388 1.93377186297e-05 0)
(0.000470772542416 1.83129380744e-05 0)
(0.00045784387172 1.72813505703e-05 0)
(0.000445620663606 1.62593918824e-05 0)
(0.000434097859055 1.52597290875e-05 0)
(0.000423262060067 1.42917460015e-05 0)
(0.000413093578076 1.33620537395e-05 0)
(0.000403568178858 1.24749852368e-05 0)
(0.000394658532747 1.16330481913e-05 0)
(0.000386335393035 1.08373232561e-05 0)
(0.000378568533031 1.00878030431e-05 0)
(0.000371327475047 9.38367333676e-06 0)
(0.000364582044293 8.72354124146e-06 0)
(0.000358302778368 8.10561673849e-06 0)
(0.000352461219731 7.52785458573e-06 0)
(0.000347030114825 6.98806338863e-06 0)
(0.000341983539796 6.48398802568e-06 0)
(0.000337296969237 6.01337093861e-06 0)
(0.000332947301262 5.5739969357e-06 0)
(0.000328912849411 5.16372548834e-06 0)
(0.000325173309544 4.78051376867e-06 0)
(0.000321709707843 4.42243320479e-06 0)
(0.000318504334305 4.08768181955e-06 0)
(0.000315540664648 3.77459437911e-06 0)
(0.000312803272249 3.48165209316e-06 0)
(0.000310277730582 3.20749359291e-06 0)
(0.000307950505572 2.95092884813e-06 0)
(0.000305808836253 2.7109578954e-06 0)
(0.000303840601143 2.48679641819e-06 0)
(0.000302034166807 2.27791068136e-06 0)
(0.000300378214229 2.08406475248e-06 0)
(0.000298861538039 1.90538365894e-06 0)
(0.000297472813659 1.74243673638e-06 0)
(0.000296200328805 1.59634606745e-06 0)
(0.000295031679877 1.46892474079e-06 0)
(0.000293953443375 1.36284772132e-06 0)
(0.000292950852801 1.28185077592e-06 0)
(0.000292007552663 1.23093205941e-06 0)
(0.000291105581725 1.21647413894e-06 0)
(0.000290225890731 1.24605130995e-06 0)
(0.0002893499714 1.32726283834e-06 0)
(0.000288463607937 1.46369975548e-06 0)
(0.000287563567761 1.6420986732e-06 0)
(0.000286662624563 1.79464763524e-06 0)
(0.00122190011577 0.000221142387405 0)
(0.00125323403414 0.000382741529943 0)
(0.00125062516501 0.000396540544491 0)
(0.00121249789829 0.000357059543597 0)
(0.00115387855592 0.000305589376937 0)
(0.0010871806629 0.000256609320593 0)
(0.0010198902005 0.000214270030783 0)
(0.00095598033544 0.000178991716442 0)
(0.000897287306773 0.000149986949314 0)
(0.000844440084522 0.00012620188705 0)
(0.000797424796132 0.000106644311891 0)
(0.000755910775094 9.04766219731e-05 0)
(0.000719432443807 7.70226535713e-05 0)
(0.000687487243154 6.57467140511e-05 0)
(0.00065958584757 5.62270345029e-05 0)
(0.000635275823433 4.81313964878e-05 0)
(0.000614150855151 4.1197029873e-05 0)
(0.000595852389476 3.52147935006e-05 0)
(0.000580067516188 3.00169951767e-05 0)
(0.000566525177684 2.54681005569e-05 0)
(0.000554991826544 2.14576622736e-05 0)
(0.000545267105996 1.78949292084e-05 0)
(0.000537179827692 1.4704719038e-05 0)
(0.000530584358175 1.18242396493e-05 0)
(0.000525357439555 9.20062495487e-06 0)
(0.000521395426733 6.78901121433e-06 0)
(0.000518611903853 4.5510250658e-06 0)
(0.000516935635331 2.45358796206e-06 0)
(0.000516308805884 4.67966441343e-07 0)
(0.00051668550589 -1.43098398193e-06 0)
(0.000518030420408 -3.26541598788e-06 0)
(0.000520317684765 -5.05496328633e-06 0)
(0.000523529872847 -6.81710825527e-06 0)
(0.000527657083872 -8.56745358071e-06 0)
(0.000532696094636 -1.03199069763e-05 0)
(0.000538649544439 -1.20867827769e-05 0)
(0.000545525118748 -1.3878820021e-05 0)
(0.000553334695559 -1.57051129434e-05 0)
(0.000562093415503 -1.75729467082e-05 0)
(0.00057181863321 -1.94875285762e-05 0)
(0.000582528703527 -2.14516030648e-05 0)
(0.000594241552507 -2.34649392793e-05 0)
(0.000606972980389 -2.55236805649e-05 0)
(0.000620734643207 -2.76195517717e-05 0)
(0.000635531662995 -2.97389295474e-05 0)
(0.000651359825835 -3.18617975573e-05 0)
(0.000668202345203 -3.39606335204e-05 0)
(0.000686026198386 -3.59993093634e-05 0)
(0.000704778089707 -3.79321300936e-05 0)
(0.000724380158693 -3.97031882792e-05 0)
(0.000744725635373 -4.12462633986e-05 0)
(0.00076567474615 -4.248553669e-05 0)
(0.000787051284156 -4.33374058872e-05 0)
(0.000808640362236 -4.37136489399e-05 0)
(0.00083018794095 -4.35260819845e-05 0)
(0.000851402738098 -4.26926720319e-05 0)
(0.000871961048769 -4.11448041056e-05 0)
(0.000891514810621 -3.88350918634e-05 0)
(0.000909702928501 -3.57448116053e-05 0)
(0.000926165440157 -3.18898057307e-05 0)
(0.000940559607595 -2.73236396449e-05 0)
(0.000952576544107 -2.21370092303e-05 0)
(0.000961956663862 -1.64529548965e-05 0)
(0.000968502214486 -1.04182954829e-05 0)
(0.000972085518063 -4.1926182642e-06 0)
(0.000972652261833 2.06322569494e-06 0)
(0.000970220041551 8.1971658429e-06 0)
(0.000964873082131 1.40731543369e-05 0)
(0.00095675441397 1.95752993221e-05 0)
(0.000946056737309 2.46093618935e-05 0)
(0.000933012898367 2.91025245738e-05 0)
(0.00091788650127 3.30023936847e-05 0)
(0.000900962841977 3.62759166053e-05 0)
(0.000882540163517 3.89084884956e-05 0)
(0.000862921205978 4.09031599088e-05 0)
(0.000842405114213 4.22796460492e-05 0)
(0.000821279898573 4.30728131715e-05 0)
(0.00079981574819 4.33304472322e-05 0)
(0.000778259524722 4.31103189457e-05 0)
(0.000756830704076 4.24767617381e-05 0)
(0.000735718904516 4.14971057493e-05 0)
(0.000715082981692 4.02383344248e-05 0)
(0.000695051526427 3.8764262432e-05 0)
(0.000675724498978 3.7133414176e-05 0)
(0.000657175685163 3.53976537566e-05 0)
(0.000639455660526 3.36015126306e-05 0)
(0.000622594984853 3.17820946758e-05 0)
(0.000606607404634 2.9969410483e-05 0)
(0.000591492901807 2.81869941659e-05 0)
(0.000577240483774 2.64526760155e-05 0)
(0.000563830657069 2.47794121084e-05 0)
(0.000551237563434 2.31761008678e-05 0)
(0.000539430782836 2.1648341736e-05 0)
(0.000528376824537 2.01991113717e-05 0)
(0.000518040336875 1.88293473052e-05 0)
(0.000508385070582 1.75384390139e-05 0)
(0.000499374631118 1.63246322969e-05 0)
(0.000490973053779 1.51853562271e-05 0)
(0.000483145232351 1.41174831298e-05 0)
(0.000475857228429 1.31175322615e-05 0)
(0.000469076484693 1.21818270704e-05 0)
(0.00046277196176 1.13066150509e-05 0)
(0.000456914214781 1.0488157913e-05 0)
(0.000451475422908 9.72279880378e-06 0)
(0.000446429382059 9.00701214124e-06 0)
(0.000441751469057 8.33744088381e-06 0)
(0.000437418583255 7.71092518404e-06 0)
(0.000433409069995 7.12452597273e-06 0)
(0.000429702628794 6.57554646659e-06 0)
(0.000426280207851 6.06155451086e-06 0)
(0.000423123885373 5.58040840805e-06 0)
(0.000420216737243 5.13028907919e-06 0)
(0.000417542689808 4.70974137842e-06 0)
(0.000415086356015 4.3177277574e-06 0)
(0.000412832852983 3.95369750735e-06 0)
(0.000410767599609 3.61767501197e-06 0)
(0.000408876094425 3.31036982821e-06 0)
(0.000407143677472 3.03331002454e-06 0)
(0.00040555528676 2.78899605666e-06 0)
(0.000404095232176 2.58106355789e-06 0)
(0.000402747030882 2.4144233686e-06 0)
(0.000401493383394 2.29530422661e-06 0)
(0.000400316424982 2.23102911882e-06 0)
(0.000399198465341 2.22914551171e-06 0)
(0.000398123509346 2.29504334794e-06 0)
(0.000397079758585 2.42603363246e-06 0)
(0.00039606221821 2.59734602005e-06 0)
(0.00039506951325 2.73304918712e-06 0)
(0.00121687348021 0.000182368787929 0)
(0.00124880124927 0.000358253430868 0)
(0.0012649498292 0.000407488917668 0)
(0.00125451715553 0.000394671095802 0)
(0.00122329184212 0.000357822465242 0)
(0.00117959806783 0.000314767884002 0)
(0.00112999938639 0.000273000595413 0)
(0.00107888339317 0.000235286994225 0)
(0.00102894783904 0.000202320238441 0)
(0.000981731573821 0.000173932069518 0)
(0.000938022859896 0.000149638115894 0)
(0.000898141883511 0.000128877799583 0)
(0.000862127306362 0.000111114368624 0)
(0.000829856194575 9.5871295705e-05 0)
(0.000801119607952 8.27404193609e-05 0)
(0.000775669350513 7.13782775526e-05 0)
(0.000753246239945 6.14982120505e-05 0)
(0.000733596668324 5.28616330604e-05 0)
(0.000716481824666 4.52698570597e-05 0)
(0.000701682375326 3.85570110778e-05 0)
(0.000689000379049 3.25840837998e-05 0)
(0.000678259558913 2.72340330761e-05 0)
(0.000669304635128 2.24078020619e-05 0)
(0.000662000156318 1.802108986e-05 0)
(0.000656229097674 1.40017370391e-05 0)
(0.000651891387137 1.02876076627e-05 0)
(0.000648902452899 6.82487107826e-06 0)
(0.000647191842671 3.56660623831e-06 0)
(0.000646701938078 4.71667975974e-07 0)
(0.000647386770338 -2.49623173899e-06 0)
(0.000649210931239 -5.36925728199e-06 0)
(0.000652148569308 -8.17603767088e-06 0)
(0.00065618245576 -1.09421212127e-05 0)
(0.000661303097956 -1.36903061298e-05 0)
(0.000667507876659 -1.6440855571e-05 0)
(0.000674800180486 -1.92115987846e-05 0)
(0.000683188507497 -2.20179154942e-05 0)
(0.000692685500227 -2.48725962426e-05 0)
(0.000703306876493 -2.77855677952e-05 0)
(0.000715070214053 -3.07634697444e-05 0)
(0.000727993542984 -3.3809066809e-05 0)
(0.00074209369588 -3.6920481617e-05 0)
(0.00075738436341 -4.00902362554e-05 0)
(0.000773873802599 -4.33040989962e-05 0)
(0.000791562148891 -4.65397475011e-05 0)
(0.000810438292922 -4.97652836879e-05 0)
(0.000830476301712 -5.29376708266e-05 0)
(0.000851631395111 -5.6001211976e-05 0)
(0.000873835535653 -5.88862507649e-05 0)
(0.000896992756802 -6.15083473183e-05 0)
(0.000920974443149 -6.37682552278e-05 0)
(0.000945614884886 -6.55530836359e-05 0)
(0.000970707550877 -6.67390478145e-05 0)
(0.000996002644059 -6.71961620119e-05 0)
(0.00102120659436 -6.67950808198e-05 0)
(0.00104598417353 -6.54160319377e-05 0)
(0.00106996384619 -6.29594099259e-05 0)
(0.00109274677015 -5.93571547705e-05 0)
(0.00111391951188 -5.45835924135e-05 0)
(0.00113307005889 -4.86640696585e-05 0)
(0.00114980613385 -4.16796070066e-05 0)
(0.001163774237 -3.37660741483e-05 0)
(0.00117467741562 -2.51071855739e-05 0)
(0.00118228967613 -1.59218785219e-05 0)
(0.00118646536676 -6.44803794385e-06 0)
(0.00118714274026 3.07451339125e-06 0)
(0.00118434198931 1.24188284913e-05 0)
(0.00117815893876 2.13814749474e-05 0)
(0.00116875597739 2.9788576308e-05 0)
(0.00115635169572 3.74980068624e-05 0)
(0.00114121026318 4.43991111422e-05 0)
(0.00112363106543 5.04113593389e-05 0)
(0.00110393871968 5.54829115607e-05 0)
(0.0010824733877 5.9589458567e-05 0)
(0.00105958131039 6.27331790444e-05 0)
(0.00103560562759 6.4941356259e-05 0)
(0.00101087772826 6.62641737211e-05 0)
(0.000985709511425 6.67714111772e-05 0)
(0.000960386971902 6.65480771143e-05 0)
(0.000935165444331 6.56893130266e-05 0)
(0.000910266674587 6.42950872973e-05 0)
(0.000885877692825 6.24652233821e-05 0)
(0.00086215128956 6.0295200333e-05 0)
(0.000839207780092 5.78729838929e-05 0)
(0.000817137693099 5.5276957839e-05 0)
(0.000796005027259 5.25748741881e-05 0)
(0.000775850766425 4.9823646816e-05 0)
(0.000756696409468 4.70697745761e-05 0)
(0.000738547339741 4.43501833823e-05 0)
(0.000721395921326 4.16933055306e-05 0)
(0.000705224260129 3.91202541445e-05 0)
(0.000690006606245 3.66459912083e-05 0)
(0.000675711400905 3.42804232559e-05 0)
(0.000662302988673 3.20293872403e-05 0)
(0.000649743025503 2.98955099466e-05 0)
(0.000637991617938 2.78789386253e-05 0)
(0.000627008229688 2.59779494231e-05 0)
(0.000616752390449 2.41894452581e-05 0)
(0.000607184239051 2.25093569938e-05 0)
(0.000598264929587 2.09329622888e-05 0)
(0.000589956925439 1.94551358233e-05 0)
(0.000582224202471 1.80705434505e-05 0)
(0.000575032379224 1.67737913138e-05 0)
(0.000568348788839 1.55595395348e-05 0)
(0.000562142504623 1.442258863e-05 0)
(0.000556384328799 1.33579456406e-05 0)
(0.000551046751831 1.23608758707e-05 0)
(0.000546103887939 1.14269453576e-05 0)
(0.000541531390867 1.05520585153e-05 0)
(0.000537306352676 9.73249499675e-06 0)
(0.000533407187237 8.96494948129e-06 0)
(0.000529813499283 8.24657797805e-06 0)
(0.000526505939255 7.57505408123e-06 0)
(0.000523466043964 6.94863853835e-06 0)
(0.00052067606328 6.36626511552e-06 0)
(0.000518118774018 5.82764500179e-06 0)
(0.000515777284174 5.33339013686e-06 0)
(0.000513634834298 4.88515215203e-06 0)
(0.000511674608838 4.48576607882e-06 0)
(0.000509879579867 4.13937348834e-06 0)
(0.00050823241992 3.85147156232e-06 0)
(0.000506715540746 3.62878015285e-06 0)
(0.000505311338647 3.47871184224e-06 0)
(0.000504002742897 3.4080171005e-06 0)
(0.000502774119974 3.41975042026e-06 0)
(0.000501612297615 3.50690008946e-06 0)
(0.000500506354119 3.63996419347e-06 0)
(0.000499442284097 3.74720674475e-06 0)
(0.00121276174956 0.000152733554281 0)
(0.00124133800116 0.000327384631793 0)
(0.00126486132895 0.000398685792798 0)
(0.00127042860185 0.000408339605362 0)
(0.00125831835021 0.000387489504401 0)
(0.00123318722623 0.000353925726466 0)
(0.00119988468113 0.000316743962642 0)
(0.00116225358283 0.0002802907016 0)
(0.00112303724235 0.000246468408732 0)
(0.00108408178882 0.000215955601017 0)
(0.00104656985116 0.000188835219043 0)
(0.00101121588538 0.000164915621655 0)
(0.000978413542407 0.00014389344974 0)
(0.00094834192188 0.000125434929969 0)
(0.000921040326645 0.000109214950022 0)
(0.000896460023248 9.49342907948e-05 0)
(0.000874499631016 8.23256846765e-05 0)
(0.000855029025711 7.11543204298e-05 0)
(0.000837905265189 6.12157569443e-05 0)
(0.000822983015496 5.23327933054e-05 0)
(0.000810121211593 4.43520848384e-05 0)
(0.000799187158006 3.71408888601e-05 0)
(0.000790058902985 3.05841081991e-05 0)
(0.000782626460272 2.45816883838e-05 0)
(0.000776792272137 1.90463684648e-05 0)
(0.000772471182197 1.39017599265e-05 0)
(0.000769590099773 9.08071874844e-06 0)
(0.000768087477266 4.52397465122e-06 0)
(0.000767912680174 1.78984697297e-07 0)
(0.000769025299127 -4.00101609097e-06 0)
(0.000771394432128 -8.05778307916e-06 0)
(0.000774997954536 -1.20286883787e-05 0)
(0.000779821780357 -1.59471985343e-05 0)
(0.000785859107013 -1.98432130739e-05 0)
(0.000793109632151 -2.37432674628e-05 0)
(0.000801578724697 -2.76705977486e-05 0)
(0.000811276526845 -3.16450595552e-05 0)
(0.000822216958512 -3.56828897087e-05 0)
(0.000834416590621 -3.97962949681e-05 0)
(0.00084789334859 -4.3992849354e-05 0)
(0.00086266500255 -4.82746801819e-05 0)
(0.000878747396631 -5.26374239925e-05 0)
(0.000896152366633 -5.70689387035e-05 0)
(0.000914885294563 -6.15477693247e-05 0)
(0.000934942251393 -6.60413841754e-05 0)
(0.000956306687928 -7.05042295632e-05 0)
(0.000978945650804 -7.48756966033e-05 0)
(0.00100280552985 -7.90781565738e-05 0)
(0.0010278073888 -8.30153014931e-05 0)
(0.00105384199784 -8.65711205616e-05 0)
(0.00108076477798 -8.96099402291e-05 0)
(0.00110839098306 -9.1978035308e-05 0)
(0.00113649158219 -9.35073493687e-05 0)
(0.00116479044597 -9.40218039667e-05 0)
(0.00119296355891 -9.33464873569e-05 0)
(0.00122064103754 -9.13196675048e-05 0)
(0.00124741268364 -8.78070768888e-05 0)
(0.00127283760438 -8.27173163002e-05 0)
(0.00129645806205 -7.60166147817e-05 0)
(0.00131781717655 -6.77406948298e-05 0)
(0.00133647943091 -5.80012996248e-05 0)
(0.00135205221349 -4.6985259185e-05 0)
(0.00136420604896 -3.49450109865e-05 0)
(0.00137269098717 -2.21812534681e-05 0)
(0.00137734707933 -9.02045337725e-06 0)
(0.00137810798162 4.20863919346e-06 0)
(0.0013749981277 1.71952874797e-05 0)
(0.00136812503931 2.96611289646e-05 0)
(0.00135766878512 4.13681067343e-05 0)
(0.00134387035501 5.21211527665e-05 0)
(0.00132702009154 6.17676224058e-05 0)
(0.00130744664481 7.01954512334e-05 0)
(0.00128550642833 7.73313389998e-05 0)
(0.00126157334805 8.31393997397e-05 0)
(0.0012360286318 8.76199877883e-05 0)
(0.00120925080287 9.08080162514e-05 0)
(0.00118160609667 9.27700774899e-05 0)
(0.00115343980187 9.359997896e-05 0)
(0.00112506905008 9.34127625964e-05 0)
(0.00109677747132 9.23376980828e-05 0)
(0.00106881192125 9.05109886803e-05 0)
(0.00104138124213 8.80689519904e-05 0)
(0.0010146568128 8.5142275899e-05 0)
(0.000988774512269 8.18516923084e-05 0)
(0.000963837675097 7.83051498604e-05 0)
(0.000939920637926 7.45963635941e-05 0)
(0.000917072539054 7.0804497506e-05 0)
(0.000895321112348 6.69946897245e-05 0)
(0.00087467629533 6.32191387529e-05 0)
(0.000855133539061 5.95185100265e-05 0)
(0.000836676760789 5.59234755301e-05 0)
(0.000819280919123 5.24562528483e-05 0)
(0.000802914217923 4.91320565436e-05 0)
(0.000787539961582 4.59604116931e-05 0)