/*--------------------------------*- C++ -*----------------------------------*\
  =========                 |
  \\      /  F ield         | OpenFOAM: The Open Source CFD Toolbox
   \\    /   O peration     | Website:  https://openfoam.org
    \\  /    A nd           | Version:  7
     \\/     M anipulation  |
\*---------------------------------------------------------------------------*/
FoamFile
{
    version     2.0;
    format      ascii;
    class       volScalarField;
    location    "1980";
    object      Ci;
}
// * * * * * * * * * * * * * * * * * * * * * * * * * * * * * * * * * * * * * //

dimensions      [0 -3 0 0 1 0 0];

internalField   nonuniform List<scalar> 
8192
(
10.000000007
9.99999997615
9.99999993894
9.99999990146
9.9999998674
9.99999983551
9.99999980483
9.99999977481
9.99999974633
9.99999971943
9.99999969523
9.99999967362
9.99999965587
9.99999964176
9.99999963266
9.9999996281
9.99999962943
9.99999963589
9.99999964881
9.99999966712
9.99999969212
9.99999972244
9.99999975929
9.99999980099
9.99999984859
9.99999990007
9.99999995629
10.0000000148
10.0000000763
10.0000001379
10.0000002
10.0000002593
10.000000316
10.0000003666
10.0000004112
10.0000004462
10.0000004717
10.0000004842
10.0000004842
10.0000004685
10.0000004384
10.0000003913
10.0000003295
10.0000002511
10.0000001593
10.000000053
9.99999993633
9.99999980867
9.99999967471
9.99999953417
9.99999939235
9.99999924934
9.99999911135
9.99999897926
9.99999886078
9.99999875817
9.99999868124
9.99999863416
9.99999862924
9.99999867257
9.9999987781
9.99999895167
9.99999920496
9.99999953816
9.99999995461
10.0000004441
10.0000009997
10.0000016031
10.0000022428
10.0000028995
10.0000035638
10.0000042197
10.0000048608
10.0000054743
10.0000060558
10.0000065948
10.000007089
10.0000075306
10.0000079204
10.0000082536
10.0000085341
10.0000087601
10.0000089379
10.0000090679
10.0000091577
10.000009209
10.0000092299
10.0000092223
10.0000091941
10.0000091466
10.000009087
10.0000090154
10.000008938
10.000008853
10.0000087641
10.000008669
10.0000085723
10.0000084711
10.0000083694
10.0000082641
10.0000081589
10.00000805
10.0000079411
10.0000078282
10.0000077149
10.0000075972
10.0000074786
10.0000073552
10.0000072302
10.0000070998
10.0000069672
10.0000068282
10.0000066862
10.0000065366
10.0000063824
10.0000062189
10.0000060485
10.0000058659
10.0000056729
10.0000054635
10.0000052395
10.0000049958
10.0000047367
10.0000044621
10.0000041829
10.0000039083
10.0000036588
10.0000034845
9.99999999253
9.99999996064
9.99999993002
9.99999990413
9.99999988063
9.99999985717
9.9999998332
9.99999980866
9.99999978457
9.99999976128
9.99999973993
9.99999972069
9.99999970474
9.99999969205
9.99999968382
9.99999967983
9.99999968121
9.9999996875
9.99999969977
9.9999997173
9.99999974112
9.99999977025
9.9999998056
9.99999984591
9.99999989196
9.99999994218
9.99999999716
10.000000055
10.0000001161
10.0000001781
10.0000002412
10.0000003028
10.0000003628
10.0000004184
10.0000004695
10.0000005132
10.0000005494
10.0000005753
10.000000591
10.0000005941
10.0000005856
10.0000005632
10.0000005289
10.0000004811
10.0000004225
10.0000003522
10.0000002734
10.0000001856
10.0000000925
9.99999999386
9.99999989364
9.99999979186
9.99999969324
9.99999959844
9.99999951339
9.99999943998
9.99999938592
9.99999935482
9.99999935649
9.99999939624
9.99999948518
9.99999962851
9.99999983547
10.000000107
10.0000004459
10.0000008455
10.0000013009
10.0000017993
10.000002332
10.0000028852
10.000003451
10.0000040173
10.0000045781
10.0000051228
10.0000056467
10.0000061404
10.0000066007
10.0000070204
10.0000073984
10.0000077299
10.0000080163
10.0000082556
10.0000084514
10.0000086037
10.0000087178
10.0000087951
10.000008842
10.0000088601
10.0000088561
10.0000088315
10.0000087925
10.00000874
10.0000086792
10.000008609
10.0000085309
10.0000084447
10.0000083546
10.0000082591
10.0000081615
10.0000080597
10.0000079565
10.0000078494
10.000007741
10.0000076287
10.000007515
10.0000073971
10.0000072776
10.0000071535
10.0000070274
10.0000068964
10.0000067629
10.0000066237
10.0000064813
10.0000063324
10.0000061789
10.0000060173
10.0000058492
10.0000056704
10.0000054819
10.0000052788
10.000005062
10.0000048273
10.0000045776
10.0000043121
10.000004037
10.0000037632
10.0000035054
10.0000033064
9.99999999327
9.9999999722
9.99999995408
9.99999993647
9.99999992047
9.99999990484
9.99999988945
9.99999987374
9.99999985859
9.99999984373
9.99999983037
9.9999998182
9.99999980861
9.99999980116
9.99999979735
9.99999979658
9.99999980039
9.99999980792
9.99999982074
9.99999983775
9.9999998605
9.99999988766
9.99999992077
9.99999995823
10.0000000015
10.0000000488
10.0000001014
10.0000001573
10.0000002177
10.0000002802
10.000000346
10.0000004124
10.0000004804
10.000000547
10.0000006134
10.0000006764
10.0000007371
10.0000007925
10.0000008439
10.0000008883
10.0000009275
10.0000009587
10.0000009843
10.0000010019
10.0000010143
10.0000010193
10.0000010202
10.0000010147
10.0000010062
10.0000009925
10.0000009769
10.0000009572
10.0000009371
10.0000009143
10.0000008938
10.000000874
10.0000008613
10.0000008556
10.0000008651
10.0000008913
10.0000009444
10.0000010264
10.000001147
10.0000013063
10.0000015104
10.0000017546
10.0000020399
10.0000023574
10.000002705
10.0000030729
10.0000034589
10.0000038537
10.0000042557
10.0000046557
10.000005052
10.0000054358
10.0000058055
10.0000061528
10.0000064772
10.0000067719
10.0000070376
10.0000072694
10.0000074696
10.0000076349
10.0000077696
10.0000078716
10.0000079464
10.000007993
10.0000080176
10.0000080195
10.000008005
10.0000079733
10.0000079304
10.000007875
10.0000078115
10.0000077376
10.0000076581
10.0000075703
10.0000074786
10.0000073801
10.0000072788
10.0000071715
10.0000070622
10.0000069472
10.0000068305
10.0000067086
10.0000065852
10.0000064566
10.0000063268
10.0000061919
10.0000060557
10.0000059142
10.0000057713
10.0000056228
10.0000054721
10.000005315
10.0000051544
10.0000049855
10.0000048108
10.0000046247
10.0000044293
10.0000042194
10.0000039989
10.0000037657
10.0000035204
10.0000032705
10.0000030197
10.0000028383
9.99999999326
9.99999998383
9.99999997145
9.99999996271
9.9999999566
9.99999995121
9.99999994603
9.99999994078
9.99999993593
9.99999993149
9.99999992808
9.99999992569
9.99999992505
9.99999992613
9.99999992972
9.99999993575
9.99999994502
9.99999995738
9.99999997364
9.99999999354
10.0000000179
10.0000000463
10.0000000795
10.0000001171
10.0000001597
10.0000002069
10.0000002593
10.0000003161
10.0000003781
10.0000004442
10.0000005152
10.0000005899
10.0000006688
10.0000007506
10.0000008359
10.000000923
10.0000010125
10.0000011028
10.0000011942
10.0000012853
10.0000013764
10.000001466
10.0000015547
10.0000016411
10.0000017258
10.0000018074
10.0000018865
10.0000019616
10.0000020333
10.0000020997
10.0000021613
10.0000022164
10.0000022656
10.0000023074
10.0000023433
10.0000023728
10.0000023986
10.0000024216
10.0000024462
10.0000024751
10.0000025143
10.0000025672
10.00000264
10.000002735
10.0000028556
10.0000030005
10.0000031692
10.0000033572
10.0000035623
10.0000037796
10.0000040075
10.000004242
10.0000044823
10.0000047244
10.0000049673
10.0000052067
10.0000054412
10.0000056667
10.0000058819
10.0000060829
10.0000062689
10.0000064365
10.0000065856
10.0000067137
10.0000068213
10.0000069069
10.0000069721
10.000007016
10.000007041
10.0000070468
10.0000070362
10.0000070094
10.0000069692
10.0000069157
10.0000068515
10.0000067763
10.0000066925
10.0000065995
10.0000064995
10.0000063918
10.0000062784
10.0000061585
10.000006034
10.0000059041
10.0000057707
10.0000056327
10.0000054922
10.0000053481
10.0000052023
10.0000050536
10.000004904
10.0000047522
10.0000046
10.0000044459
10.0000042915
10.0000041351
10.000003978
10.0000038181
10.0000036559
10.0000034888
10.0000033166
10.0000031363
10.0000029484
10.0000027533
10.00000255
10.0000023487
10.0000021257
10.000002035
9.99999999775
9.99999999849
9.99999999858
9.99999999724
9.99999999703
9.99999999746
9.99999999841
9.99999999975
10.0000000019
10.0000000049
10.0000000092
10.0000000147
10.0000000219
10.0000000307
10.0000000417
10.0000000546
10.0000000702
10.0000000883
10.0000001095
10.0000001337
10.0000001615
10.0000001929
10.0000002284
10.0000002679
10.0000003123
10.0000003612
10.0000004156
10.000000475
10.0000005406
10.0000006116
10.0000006894
10.0000007729
10.0000008636
10.0000009598
10.0000010635
10.0000011723
10.000001288
10.0000014082
10.0000015343
10.0000016641
10.0000017981
10.0000019344
10.0000020731
10.0000022124
10.000002352
10.00000249
10.000002626
10.000002758
10.0000028852
10.0000030057
10.0000031187
10.0000032223
10.0000033164
10.0000033993
10.000003472
10.000003534
10.0000035875
10.0000036336
10.000003676
10.0000037172
10.0000037626
10.0000038155
10.000003881
10.0000039614
10.000004059
10.0000041725
10.0000043005
10.0000044384
10.0000045836
10.0000047315
10.0000048807
10.0000050281
10.0000051733
10.0000053139
10.0000054498
10.0000055787
10.0000057006
10.0000058136
10.0000059178
10.0000060117
10.0000060956
10.000006168
10.0000062291
10.0000062775
10.0000063136
10.0000063361
10.0000063456
10.0000063411
10.0000063235
10.0000062921
10.0000062481
10.000006191
10.0000061223
10.0000060417
10.0000059508
10.0000058493
10.0000057387
10.0000056188
10.0000054912
10.0000053556
10.0000052136
10.000005065
10.0000049115
10.0000047528
10.0000045907
10.000004425
10.0000042575
10.0000040879
10.0000039181
10.0000037478
10.0000035787
10.0000034104
10.0000032445
10.0000030805
10.0000029197
10.0000027613
10.0000026064
10.0000024537
10.0000023037
10.0000021546
10.000002006
10.0000018555
10.0000017023
10.0000015468
10.0000013848
10.0000012387
10.000001053
10.0000010454
9.999999997
10.0000000036
10.0000000066
10.0000000129
10.0000000213
10.0000000297
10.0000000379
10.000000046
10.0000000544
10.0000000635
10.0000000737
10.000000085
10.000000098
10.0000001125
10.0000001289
10.0000001472
10.0000001678
10.0000001907
10.0000002162
10.0000002443
10.0000002757
10.0000003102
10.0000003487
10.000000391
10.0000004383
10.00000049
10.0000005481
10.0000006113
10.0000006824
10.0000007592
10.0000008457
10.0000009381
10.0000010417
10.000001151
10.0000012726
10.0000013993
10.0000015384
10.0000016818
10.000001836
10.0000019938
10.0000021595
10.0000023276
10.0000024998
10.0000026725
10.0000028455
10.0000030163
10.0000031837
10.0000033455
10.0000035005
10.0000036466
10.0000037828
10.0000039075
10.0000040202
10.00000412
10.0000042078
10.0000042839
10.0000043502
10.0000044089
10.0000044631
10.0000045163
10.0000045731
10.0000046376
10.0000047141
10.0000048054
10.0000049129
10.0000050351
10.0000051691
10.0000053099
10.0000054531
10.0000055938
10.0000057295
10.0000058572
10.0000059755
10.0000060823
10.0000061767
10.0000062569
10.0000063226
10.000006373
10.0000064087
10.0000064293
10.0000064361
10.0000064291
10.0000064095
10.0000063774
10.0000063338
10.0000062787
10.0000062129
10.0000061362
10.0000060494
10.0000059523
10.0000058454
10.0000057286
10.0000056025
10.000005467
10.0000053228
10.0000051698
10.0000050089
10.0000048402
10.0000046646
10.0000044823
10.0000042947
10.0000041018
10.0000039052
10.0000037052
10.0000035034
10.0000033002
10.0000030973
10.0000028952
10.0000026955
10.0000024987
10.0000023063
10.0000021186
10.000001937
10.0000017617
10.0000015938
10.000001433
10.0000012802
10.0000011348
10.000000997
10.0000008656
10.00000074
10.0000006184
10.000000499
10.000000383
10.000000262
10.0000001661
10.0000000233
10.0000000661
10.0000000005
10.0000000118
10.0000000234
10.000000034
10.0000000457
10.0000000577
10.0000000696
10.0000000814
10.0000000935
10.0000001062
10.0000001199
10.0000001349
10.0000001513
10.0000001693
10.0000001891
10.0000002107
10.0000002343
10.0000002601
10.0000002884
10.0000003191
10.000000353
10.0000003898
10.0000004308
10.0000004752
10.0000005256
10.0000005799
10.0000006426
10.0000007092
10.0000007875
10.000000869
10.0000009665
10.000001065
10.0000011843
10.0000013014
10.0000014435
10.0000015799
10.0000017433
10.0000018987
10.0000020789
10.0000022513
10.0000024421
10.0000026269
10.0000028213
10.0000030114
10.0000032027
10.0000033893
10.000003571
10.0000037456
10.0000039113
10.0000040669
10.0000042111
10.0000043428
10.0000044616
10.0000045673
10.0000046606
10.0000047425
10.0000048149
10.0000048803
10.0000049419
10.0000050034
10.0000050692
10.0000051441
10.0000052321
10.0000053364
10.0000054581
10.0000055957
10.0000057453
10.0000059018
10.0000060597
10.0000062142
10.0000063619
10.0000064997
10.0000066256
10.0000067372
10.0000068324
10.0000069093
10.0000069667
10.0000070035
10.0000070195
10.0000070149
10.0000069901
10.0000069458
10.0000068832
10.0000068031
10.0000067067
10.0000065952
10.0000064696
10.0000063308
10.0000061799
10.0000060176
10.0000058448
10.000005662
10.0000054699
10.000005269
10.0000050599
10.0000048432
10.0000046195
10.0000043894
10.0000041537
10.0000039133
10.000003669
10.0000034219
10.0000031731
10.0000029238
10.0000026752
10.0000024285
10.0000021852
10.0000019464
10.0000017135
10.0000014878
10.0000012703
10.0000010621
10.0000008641
10.0000006772
10.000000502
10.0000003388
10.000000188
10.0000000493
9.99999992271
9.99999980721
9.99999970198
9.9999996054
9.99999951525
9.99999943306
9.99999934868
9.99999929212
9.99999919398
9.99999925731
9.99999999796
10.0000000107
10.0000000214
10.0000000366
10.0000000543
10.000000072
10.000000089
10.0000001054
10.0000001215
10.0000001378
10.0000001548
10.0000001726
10.0000001917
10.0000002121
10.0000002341
10.0000002577
10.0000002833
10.0000003107
10.0000003407
10.0000003727
10.0000004083
10.0000004461
10.0000004894
10.0000005349
10.0000005889
10.0000006442
10.0000007133
10.0000007806
10.0000008698
10.0000009508
10.0000010655
10.0000011609
10.0000013055
10.0000014153
10.0000015913
10.0000017158
10.0000019197
10.0000020602
10.0000022826
10.0000024412
10.0000026689
10.0000028454
10.000003066
10.000003255
10.0000034612
10.0000036514
10.0000038404
10.0000040197
10.0000041896
10.0000043492
10.000004497
10.0000046325
10.0000047551
10.0000048648
10.0000049622
10.0000050483
10.0000051248
10.0000051943
10.0000052601
10.0000053262
10.0000053971
10.0000054782
10.0000055739
10.0000056881
10.0000058216
10.0000059728
10.0000061372
10.0000063086
10.000006481
10.0000066493
10.0000068104
10.0000069613
10.0000071001
10.0000072242
10.0000073316
10.0000074196
10.0000074868
10.0000075314
10.0000075531
10.000007551
10.0000075253
10.0000074761
10.000007404
10.0000073093
10.0000071934
10.0000070568
10.0000069011
10.0000067272
10.0000065365
10.0000063303
10.0000061098
10.0000058762
10.0000056307
10.0000053744
10.0000051085
10.000004834
10.0000045521
10.0000042639
10.0000039707
10.0000036737
10.0000033743
10.0000030738
10.0000027739
10.0000024759
10.0000021816
10.0000018923
10.0000016099
10.0000013357
10.0000010713
10.0000008179
10.0000005771
10.0000003496
10.0000001368
9.99999993917
9.99999975746
9.99999959181
9.99999944257
9.99999930924
9.99999919172
9.99999908865
9.99999899942
9.99999892172
9.99999885388
9.99999879572
9.99999873939
9.99999870756
9.99999864699
9.99999871076
10.0000000011
10.0000000172
10.0000000344
10.0000000513
10.0000000698
10.0000000888
10.0000001075
10.0000001257
10.0000001438
10.0000001622
10.0000001811
10.0000002008
10.0000002216
10.0000002436
10.000000267
10.0000002918
10.0000003185
10.0000003468
10.0000003778
10.0000004102
10.0000004473
10.0000004851
10.0000005312
10.0000005759
10.0000006355
10.0000006884
10.0000007682
10.0000008295
10.0000009383
10.0000010058
10.000001154
10.0000012227
10.0000014207
10.000001484
10.0000017384
10.0000017921
10.0000020993
10.0000021475
10.0000024884
10.0000025469
10.0000028884
10.0000029788
10.0000032862
10.000003421
10.0000036763
10.0000038464
10.0000040552
10.0000042356
10.000004414
10.0000045827
10.0000047391
10.0000048852
10.0000050182
10.0000051386
10.0000052457
10.0000053408
10.0000054245
10.0000054997
10.0000055695
10.0000056383
10.0000057111
10.0000057939
10.0000058916
10.0000060086
10.0000061459
10.0000063015
10.0000064703
10.0000066458
10.0000068214
10.0000069925
10.0000071558
10.0000073092
10.0000074507
10.0000075785
10.0000076905
10.0000077843
10.0000078582
10.0000079106
10.0000079405
10.0000079473
10.0000079303
10.0000078893
10.0000078241
10.0000077349
10.000007622
10.0000074853
10.0000073252
10.0000071428
10.000006939
10.0000067151
10.0000064725
10.0000062127
10.0000059371
10.0000056474
10.0000053451
10.000005032
10.0000047096
10.0000043797
10.0000040441
10.0000037046
10.0000033631
10.0000030215
10.0000026816
10.0000023457
10.0000020154
10.0000016928
10.0000013797
10.000001078
10.0000007891
10.0000005148
10.0000002561
10.0000000146
9.99999979078
9.99999958567
9.99999939945
9.99999923253
9.99999908456
9.99999895534
9.99999884401
9.99999874946
9.99999867039
9.99999860461
9.99999855013
9.99999850581
9.99999846577
9.99999844548
9.99999840813
9.99999846051
9.99999999812
10.0000000151
10.0000000307
10.0000000511
10.0000000741
10.0000000972
10.0000001194
10.0000001408
10.0000001617
10.0000001824
10.0000002035
10.000000225
10.0000002475
10.0000002708
10.0000002956
10.0000003212
10.0000003492
10.0000003777
10.0000004101
10.000000442
10.0000004814
10.0000005176
10.0000005683
10.0000006092
10.0000006785
10.0000007228
10.0000008221
10.0000008644
10.0000010107
10.0000010387
10.0000012554
10.0000012479
10.0000015641
10.0000014929
10.0000019365
10.0000017763
10.0000023591
10.0000021066
10.0000028023
10.0000024972
10.000003228
10.0000029551
10.0000036099
10.0000034619
10.0000039536
10.00000397
10.0000042914
10.0000044311
10.0000046464
10.0000048274
10.0000049993
10.0000051655
10.0000053134
10.0000054489
10.0000055675
10.0000056712
10.0000057589
10.000005836
10.0000059054
10.0000059726
10.0000060432
10.0000061244
10.0000062223
10.0000063421
10.0000064844
10.0000066467
10.0000068217
10.0000070021
10.0000071801
10.000007351
10.0000075118
10.0000076612
10.000007798
10.0000079202
10.0000080258
10.0000081131
10.0000081809
10.0000082281
10.0000082545
10.0000082594
10.0000082425
10.000008203
10.0000081405
10.0000080546
10.0000079449
10.000007812
10.0000076553
10.0000074768
10.0000072749
10.0000070504
10.0000068044
10.0000065381
10.0000062533
10.0000059514
10.0000056344
10.0000053042
10.0000049628
10.0000046124
10.000004255
10.0000038931
10.000003529
10.0000031648
10.0000028031
10.0000024462
10.0000020962
10.0000017555
10.0000014261
10.0000011101
10.0000008091
10.0000005248
10.0000002584
10.0000000113
9.99999978407
9.99999957746
9.99999939157
9.99999922654
9.9999990818
9.99999895693
9.99999885066
9.99999876191
9.99999868867
9.99999862919
9.99999858041
9.99999854172
9.99999850677
9.99999848797
9.99999845828
9.99999849285
10.0000000014
10.0000000223
10.0000000444
10.0000000661
10.0000000891
10.0000001125
10.0000001354
10.0000001578
10.0000001798
10.0000002018
10.0000002241
10.0000002468
10.0000002705
10.0000002948
10.0000003207
10.0000003469
10.000000376
10.0000004043
10.0000004385
10.0000004692
10.0000005119
10.0000005448
10.0000006027
10.0000006359
10.0000007207
10.0000007477
10.0000008791
10.0000008837
10.0000010941
10.0000010435
10.0000013836
10.0000012209
10.0000017644
10.0000014063
10.0000022446
10.0000015954
10.0000028104
10.0000018043
10.0000034108
10.0000020826
10.0000039558
10.0000025013
10.000004353
10.0000031007
10.0000045839
10.0000038289
10.0000047459
10.0000045351
10.0000049728
10.0000050926
10.0000053031
10.0000054989
10.0000056557
10.0000058147
10.0000059464
10.0000060613
10.000006157
10.0000062364
10.0000063039
10.0000063674
10.0000064333
10.0000065103
10.0000066065
10.0000067273
10.0000068726
10.0000070377
10.0000072144
10.0000073944
10.0000075704
10.0000077374
10.0000078928
10.0000080351
10.0000081625
10.0000082733
10.0000083657
10.0000084385
10.0000084914
10.0000085242
10.0000085373
10.0000085308
10.0000085045
10.0000084581
10.0000083904
10.0000083011
10.000008189
10.0000080546
10.0000078969
10.0000077178
10.0000075164
10.0000072956
10.0000070536
10.0000067908
10.0000065081
10.0000062075
10.0000058905
10.0000055592
10.0000052156
10.0000048622
10.0000045013
10.0000041354
10.000003767
10.0000033989
10.0000030334
10.0000026734
10.000002321
10.0000019789
10.0000016492
10.0000013339
10.0000010347
10.0000007535
10.0000004913
10.0000002493
10.0000000279
9.99999982794
9.99999964894
9.9999994912
9.99999935339
9.99999923551
9.99999913506
9.99999905203
9.9999989824
9.99999892665
9.99999887836
9.99999884069
9.99999880276
9.99999877993
9.99999874597
9.99999876033
9.99999999847
10.0000000207
10.0000000419
10.0000000672
10.0000000945
10.0000001216
10.0000001477
10.0000001727
10.0000001971
10.000000221
10.0000002451
10.0000002693
10.0000002945
10.0000003198
10.0000003471
10.0000003737
10.0000004044
10.0000004323
10.0000004688
10.0000004975
10.0000005448
10.0000005728
10.0000006403
10.0000006625
10.0000007676
10.0000007701
10.0000009438
10.0000008952
10.0000011925
10.0000010283
10.0000015439
10.0000011468
10.0000020352
10.0000012154
10.0000027034
10.0000011982
10.0000035628
10.0000010921
10.0000045622
10.0000009779
10.000005537
10.000001054
10.0000062228
10.0000015808
10.0000063963
10.0000026557
10.0000061062
10.0000040164
10.0000057457
10.0000051748
10.0000057136
10.000005865
10.0000060096
10.0000062281
10.0000063482
10.0000064785
10.0000065741
10.0000066515
10.0000067153
10.0000067688
10.0000068226
10.0000068947
10.0000069971
10.0000071291
10.0000072791
10.0000074388
10.0000076047
10.0000077765
10.0000079522
10.0000081264
10.0000082931
10.0000084456
10.0000085782
10.0000086873
10.0000087713
10.0000088299
10.0000088642
10.0000088759
10.0000088668
10.0000088386
10.0000087918
10.0000087265
10.0000086419
10.0000085375
10.0000084121
10.0000082657
10.0000080976
10.000007909
10.0000076996
10.0000074719
10.0000072253
10.000006964
10.0000066846
10.000006388
10.000006076
10.0000057503
10.0000054131
10.0000050665
10.0000047131
10.0000043552
10.0000039956
10.0000036368
10.0000032814
10.0000029321
10.0000025914
10.0000022617
10.000001945
10.0000016434
10.0000013587
10.0000010922
10.0000008451
10.0000006183
10.000000412
10.0000002268
10.0000000618
9.99999991747
9.99999979151
9.99999968457
9.99999959262
9.99999951728
9.99999945166
9.99999939985
9.99999935022
9.99999931247
9.99999926747
9.99999923913
9.99999919384
9.99999918968
10.0000000018
10.0000000287
10.0000000567
10.0000000833
10.0000001108
10.0000001382
10.000000165
10.0000001909
10.0000002164
10.0000002415
10.0000002669
10.0000002922
10.0000003187
10.0000003448
10.0000003735
10.0000004004
10.0000004328
10.0000004602
10.0000004992
10.000000526
10.0000005778
10.0000006013
10.0000006777
10.0000006899
10.0000008133
10.0000007941
10.0000010059
10.000000909
10.0000012865
10.0000010148
10.0000017012
10.0000010667
10.0000023186
10.0000009858
10.000003233
10.000000663
10.0000045465
9.99999999753
10.0000063023
9.99999900135
10.0000083485
9.99999797043
10.0000101956
9.9999975626
10.0000110571
9.99999852197
10.0000103711
10.0000009753
10.0000085403
10.0000039301
10.000006895
10.0000059888
10.000006408
10.0000067584
10.0000067316
10.0000069597
10.0000070251
10.0000071171
10.0000071747
10.0000071927
10.0000072287
10.0000073438
10.000007493
10.0000075571
10.000007471
10.0000072916
10.0000071493
10.0000071549
10.0000073402
10.0000076619
10.0000080418
10.0000084074
10.0000087138
10.0000089445
10.0000091018
10.0000091968
10.0000092423
10.0000092494
10.0000092269
10.0000091807
10.0000091141
10.0000090288
10.0000089244
10.0000088006
10.0000086561
10.0000084909
10.0000083044
10.0000080979
10.0000078718
10.0000076284
10.0000073687
10.0000070954
10.0000068099
10.0000065136
10.0000062043
10.0000058835
10.0000055532
10.0000052154
10.0000048725
10.000004527
10.0000041811
10.0000038377
10.0000034991
10.000003168
10.0000028466
10.0000025373
10.0000022419
10.0000019624
10.0000017002
10.0000014565
10.0000012321
10.0000010278
10.0000008433
10.0000006791
10.0000005337
10.0000004076
10.0000002977
10.0000002054
10.0000001247
10.0000000596
9.99999999942
9.99999995301
9.99999990217
9.99999986515
9.99999981199
9.99999977922
9.99999971942
9.99999970072
9.99999999915
10.0000000278
10.0000000555
10.0000000859
10.0000001176
10.0000001487
10.0000001787
10.0000002074
10.0000002354
10.0000002625
10.00000029
10.0000003168
10.0000003451
10.0000003723
10.0000004026
10.0000004302
10.0000004642
10.0000004918
10.0000005327
10.0000005591
10.0000006134
10.0000006357
10.000000716
10.0000007259
10.0000008559
10.000000832
10.0000010561
10.000000948
10.0000013516
10.0000010485
10.0000017991
10.000001072
10.000002495
10.0000008958
10.0000036011
10.00000031
10.0000053635
9.99999901798
10.0000080769
9.99999673645
10.0000119065
9.99999351188
10.0000164585
9.99999018601
10.0000203212
9.99998865678
10.0000212821
9.99999096641
10.0000180188
9.9999970595
10.0000122272
10.0000036887
10.0000078242
10.0000072515
10.0000068504
10.0000076642
10.0000074161
10.0000076508
10.0000075355
10.0000074506
10.000007782
10.0000082974
10.0000078812
10.0000055702
10.0000015704
9.99999721353
9.99999407156
9.99999308625
9.99999426022
9.99999689937
10.0000000919
10.0000030966
10.0000055077
10.0000072262
10.0000083391
10.0000090003
10.0000093574
10.0000095221
10.0000095686
10.0000095417
10.0000094681
10.000009363
10.0000092352
10.0000090895
10.0000089272
10.000008748
10.0000085505
10.0000083333
10.0000080959
10.0000078385
10.000007563
10.0000072712
10.000006967
10.0000066524
10.0000063322
10.0000060033
10.0000056681
10.0000053293
10.0000049892
10.0000046502
10.0000043148
10.0000039852
10.0000036636
10.000003352
10.0000030526
10.000002767
10.0000024968
10.0000022435
10.0000020081
10.0000017916
10.0000015941
10.0000014162
10.0000012572
10.0000011173
10.0000009945
10.0000008894
10.0000007981
10.0000007223
10.000000655
10.0000006012
10.0000005481
10.0000005077
10.0000004569
10.0000004207
10.0000003601
10.0000003229
10.0000002479
10.0000002165
10.0000000025
10.0000000361
10.0000000705
10.0000001025
10.0000001344
10.0000001658
10.0000001966
10.0000002264
10.0000002558
10.0000002844
10.0000003134
10.0000003417
10.0000003714
10.0000004
10.0000004316
10.0000004605
10.0000004955
10.0000005244
10.0000005658
10.0000005941
10.0000006476
10.0000006738
10.0000007504
10.0000007691
10.0000008889
10.0000008849
10.0000010845
10.0000010189
10.0000013687
10.0000011509
10.0000017941
10.0000012233
10.0000024579
10.0000011038
10.0000035498
10.0000005234
10.0000054285
9.99999898996
10.0000087054
9.99999575588
10.0000142111
9.99999000803
10.0000225269
9.99998165978
10.0000328113
9.99997283867
10.0000413392
9.99996872058
10.0000421253
9.99997467358
10.0000321518
9.99998964656
10.0000170053
10.0000042751
10.0000072987
10.0000094384
10.0000072419
10.0000083145
10.0000070595
10.0000085271
10.0000116011
10.0000089792
9.99999088218
9.9999547752
9.99990903491
9.99986803419
9.99984405972
9.99984202532
9.99985905648
9.99988760315
9.99991937906
9.99994814851
9.99997074523
9.99998664111
9.99999686418
10.0000029703
10.0000064036
10.0000082418
10.0000091828
10.0000096301
10.0000097953
10.0000097826
10.0000096454
10.000009418
10.0000091292
10.000008805
10.000008467
10.0000081308
10.0000078053
10.0000074937
10.0000071954
10.0000069073
10.0000066257
10.0000063475
10.0000060695
10.0000057921
10.0000055084
10.0000052191
10.0000049255
10.0000046297
10.0000043342
10.0000040416
10.0000037545
10.0000034756
10.0000032073
10.0000029516
10.0000027107
10.0000024858
10.0000022783
10.0000020887
10.0000019179
10.0000017653
10.0000016311
10.000001514
10.0000014135
10.0000013276
10.0000012549
10.0000011935
10.0000011402
10.000001095
10.0000010503
10.0000010115
10.0000009627
10.0000009203
10.0000008545
10.0000008021
10.0000007134
10.0000006538
10.0000000001
10.0000000358
10.0000000704
10.0000001059
10.0000001418
10.0000001768
10.0000002106
10.0000002432
10.0000002751
10.0000003061
10.0000003372
10.0000003676
10.0000003991
10.0000004295
10.0000004625
10.0000004933
10.0000005291
10.0000005604
10.0000006012
10.0000006334
10.0000006838
10.0000007175
10.0000007855
10.0000008202
10.0000009196
10.00000095
10.0000011035
10.0000011119
10.0000013604
10.0000012998
10.0000017249
10.0000014814
10.0000022618
10.0000015667
10.0000031121
10.0000013371
10.0000045972
10.0000002977
10.0000074284
9.99999744072
10.0000129872
9.99999095725
10.0000234378
9.9999784921
10.0000408162
9.99995909488
10.0000637992
9.99993758774
10.0000831262
9.99992736715
10.0000832881
9.99994192734
10.0000574316
9.999977781
10.0000198983
10.0000103421
10.000003205
10.0000087832
10.0000074236
10.0000253059
10.0000160073
9.99991347713
9.99967280953
9.99932282989
9.99895556261
9.9986755121
9.99855125885
9.99859492579
9.99877041787
9.9990180671
9.99927881514
9.99951004664
9.99969078699
9.99981834576
9.99990095955
9.99995068668
9.99997880797
9.99999390735
10.0000017262
10.0000057616
10.000007976
10.0000093674
10.0000103726
10.0000111344
10.0000116697
10.0000119632
10.0000120117
10.0000118352
10.0000114731
10.0000109735
10.0000103851
10.0000097501
10.0000091014
10.0000084632
10.0000078501
10.0000072714
10.0000067305
10.0000062232
10.0000057488
10.0000053058
10.0000048927
10.0000045081
10.0000041509
10.00000382
10.0000035153
10.0000032357
10.0000029815
10.0000027513
10.0000025462
10.0000023632
10.0000022045
10.0000020648
10.0000019481
10.0000018457
10.0000017648
10.0000016912
10.0000016377
10.0000015821
10.0000015456
10.0000014951
10.0000014634
10.0000014031
10.0000013617
10.0000012754
10.0000012095
10.0000010823
10.0000009836
10.0000008061
10.0000000033
10.000000044
10.0000000849
10.0000001219
10.000000158
10.0000001932
10.0000002278
10.0000002616
10.000000295
10.0000003277
10.0000003605
10.0000003926
10.0000004257
10.000000458
10.0000004923
10.0000005252
10.0000005615
10.0000005956
10.0000006357
10.0000006722
10.0000007194
10.0000007606
10.0000008207
10.00000087
10.0000009517
10.0000010117
10.0000011268
10.0000011969
10.0000013621
10.0000014324
10.0000016748
10.0000017137
10.0000020893
10.000002012
10.0000026587
10.0000022353
10.0000035298
10.0000021233
10.000005139
10.0000009599
10.0000086464
9.99999690054
10.0000168214
9.99998594456
10.0000349843
9.99996167004
10.0000696192
9.99991960298
10.0001198473
9.99986977597
10.0001638011
9.99984456662
10.0001649656
9.99987499218
10.0001029633
9.99996998242
9.99999615736
10.0000240252
10.0000532708
10.0000630593
9.99961136027