/*--------------------------------*- C++ -*----------------------------------*\
  =========                 |
  \\      /  F ield         | OpenFOAM: The Open Source CFD Toolbox
   \\    /   O peration     | Website:  https://openfoam.org
    \\  /    A nd           | Version:  7
     \\/     M anipulation  |
\*---------------------------------------------------------------------------*/
FoamFile
{
    version     2.0;
    format      ascii;
    class       volScalarField;
    location    "1980";
    object      p;
}
// * * * * * * * * * * * * * * * * * * * * * * * * * * * * * * * * * * * * * //

dimensions      [0 2 -2 0 0 0 0];

internalField   nonuniform List<scalar> 
8192
(
0.000603232442445
0.000431686910877
0.000346082006278
0.000301984011672
0.000276976412712
0.000261756513765
0.000251905040381
0.000245176722722
0.00024036434811
0.000236783807277
0.000234027795384
0.00023184251968
0.000230063251912
0.000228579183541
0.000227313453367
0.000226211339448
0.000225233012797
0.000224348934461
0.000223536837897
0.000222779693313
0.000222064298299
0.000221380278907
0.00022071936594
0.000220074859819
0.00021944122657
0.000218813786401
0.000218188467755
0.000217561607871
0.000216929785517
0.000216289676388
0.000215637922761
0.000214971010673
0.000214285149167
0.000213576147508
0.00021283928641
0.000212069180533
0.000211259629676
0.000210403457621
0.000209492338322
0.000208516611513
0.000207465091774
0.00020632487898
0.00020508118183
0.000203717171979
0.000202213891715
0.00020055024495
0.000198703106101
0.000196647585301
0.00019435748684
0.000191805991471
0.000188966578064
0.000185814178681
0.000182326532228
0.000178485672257
0.000174279455969
0.000169703021284
0.000164760045708
0.000159463677368
0.00015383701114
0.000147912998275
0.000141733711095
0.000135348948841
0.000128814263611
0.000122188593787
0.000115531776451
0.000108902237019
0.000102355103661
9.59408682765e-05
8.97045892038e-05
8.36855372664e-05
7.79171262878e-05
7.2426970834e-05
6.7236956163e-05
6.23632701073e-05
5.78164062243e-05
5.36011906466e-05
4.97169011491e-05
4.61575413168e-05
4.29123064583e-05
3.99662432511e-05
3.73010677495e-05
3.48960795961e-05
3.27290962232e-05
3.07773345238e-05
2.9018181737e-05
2.74298200233e-05
2.59916906859e-05
2.46848036259e-05
2.34919095689e-05
2.23975604015e-05
2.13880839247e-05
2.0451498707e-05
1.95773902575e-05
1.87567663648e-05
1.79819041994e-05
1.72461988996e-05
1.65440192437e-05
1.58705745284e-05
1.5221793986e-05
1.45942197928e-05
1.39849128845e-05
1.33913712712e-05
1.28114592512e-05
1.22433468036e-05
1.16854573965e-05
1.11364235213e-05
1.05950483134e-05
1.00602727696e-05
9.53114715081e-06
9.00680634105e-06
8.48644803174e-06
7.96931382796e-06
7.4546725368e-06
6.94180625465e-06
6.42999924823e-06
5.91853135893e-06
5.4066776795e-06
4.89371911345e-06
4.37897044235e-06
3.86183904207e-06
3.34193630658e-06
2.81928390946e-06
2.2946937395e-06
1.77048035929e-06
1.25184208075e-06
7.4969061042e-07
2.87605190566e-07
-1.67187153232e-08
0.000454314484398
0.000390804898504
0.000341125643328
0.000308487324071
0.000286579720664
0.000271411104023
0.000260602051519
0.000252687363206
0.000246741701892
0.000242166716381
0.000238566431957
0.000235672772409
0.000233300219845
0.00023131769695
0.00022963078935
0.000228170278887
0.000226884596396
0.000225734753741
0.000224690873486
0.000223729767489
0.000222833216636
0.000221986727562
0.00022117861899
0.000220399339391
0.000219640948882
0.000218896719092
0.00021816081821
0.000217428057745
0.00021669368329
0.000215953197681
0.000215202206465
0.00021443627752
0.000213650808914
0.000212840900373
0.000212001224368
0.000211125894034
0.000210208325682
0.000209241095042
0.000208215787305
0.000207122843079
0.000205951404145
0.000204689166121
0.000203322248213
0.000201835094791
0.000200210427756
0.000198429273774
0.000196471093963
0.000194314046211
0.000191935408633
0.000189312187128
0.000186421917493
0.000183243654738
0.000179759118743
0.000175953941027
0.000171818934509
0.000167351292257
0.000162555611989
0.000157444641818
0.000152039646267
0.000146370303994
0.000140474074557
0.000134395021788
0.000128182156142
0.000121887447513
0.000115563731201
0.000109262752515
0.000103033559544
9.69213405694e-05
9.09667009469e-05
8.52053053836e-05
7.96677574993e-05
7.43795917734e-05
6.93612876105e-05
6.46282668708e-05
6.01908832848e-05
5.60544451459e-05
5.2219324683e-05
4.8681202386e-05
4.54314736996e-05
4.24578176e-05
3.9744896796e-05
3.72751377307e-05
3.50295276861e-05
3.29883694637e-05
3.11319460257e-05
2.94410657491e-05
2.78974763639e-05
2.6484151231e-05
2.51854613813e-05
2.3987252971e-05
2.28768509628e-05
2.18430094675e-05
2.08758260316e-05
1.99666345289e-05
1.91078874208e-05
1.8293035772e-05
1.75164122824e-05
1.67731212099e-05
1.60589369253e-05
1.53702123577e-05
1.47037971992e-05
1.40569658636e-05
1.34273542489e-05
1.2812904823e-05
1.22118188406e-05
1.16225151414e-05
1.10435943719e-05
1.0473808198e-05
9.91203251561e-06
9.35724443414e-06
8.80850228685e-06
8.26492874762e-06
7.72569668444e-06
7.19001833601e-06
6.65713813848e-06
6.12633079906e-06
5.59690644289e-06
5.06822671531e-06
4.53973720703e-06
4.01102566288e-06
3.48192025838e-06
2.95265188633e-06
2.42411870615e-06
1.89831798001e-06
1.37905568038e-06
8.73163167615e-07
3.92109117477e-07
2.92945576953e-08
0.000371355666308
0.00034869403938
0.000322712041563
0.000301487443093
0.000285380634564
0.000273081608978
0.000263570423325
0.000256119227233
0.000250205935181
0.000245451366686
0.000241577293769
0.000238377765147
0.000235699043691
0.000233425382193
0.000231468864261
0.000229762109469
0.000228253006202
0.000226900884185
0.000225673712271
0.000224546029722
0.000223497404933
0.000222511276077
0.000221574069973
0.000220674525297
0.000219803166566
0.000218951890238
0.000218113634302
0.000217282110004
0.000216451579052
0.000215616665967
0.000214772195511
0.000213913047073
0.000213034020465
0.000212129708729
0.000211194374089
0.000210221824485
0.000209205288564
0.000208137288396
0.000207009509855
0.000205812672496
0.000204536402093
0.000203169111779
0.000201697900058
0.000200108477906
0.000198385140445
0.000196510803224
0.000194467126067
0.000192234750155
0.000189793672857
0.000187123780816
0.000184205551089
0.000181020915039
0.000177554258415
0.000173793509395
0.000169731245645
0.000165365738394
0.000160701844613
0.000155751659079
0.000150534840319
0.000145078531924
0.000139416817086
0.000133589684082
0.000127641547301
0.000121619456716
0.000115571203753
0.000109543557653
0.000103580838972
9.77239092393e-05
9.2009558115e-05
8.64702178124e-05
8.11338767692e-05
7.60240755432e-05
7.11599048574e-05
6.65559770591e-05
6.22223855988e-05
5.81646956135e-05
5.43840169254e-05
5.08772046355e-05
4.76372121056e-05
4.4653594987e-05
4.19131367671e-05
3.94005467545e-05
3.70991719902e-05
3.49916690408e-05
3.30605935183e-05
3.12888827665e-05
2.96602227082e-05
2.81593036418e-05
2.67719775006e-05
2.54853341731e-05
2.42877146829e-05
2.31686786565e-05
2.21189403669e-05
2.11302856741e-05
2.01954786364e-05
1.93081649453e-05
1.84627764822e-05
1.76544405093e-05
1.68788949472e-05
1.61324111328e-05
1.54117239685e-05
1.47139697967e-05
1.40366312029e-05
1.3377488651e-05
1.27345779091e-05
1.21061530736e-05
1.14906541408e-05
1.08866790054e-05
1.02929589433e-05
9.70833761684e-06
9.13175284946e-06
8.56222144446e-06
7.99882658784e-06
7.44070848449e-06
6.88705825984e-06
6.33711644095e-06
5.79017695931e-06
5.2455992565e-06
4.70283121048e-06
4.1614479756e-06
3.62121304969e-06
3.08217192091e-06
2.54479255631e-06
2.01017493489e-06
1.48035857787e-06
9.58695201449e-07
4.49586957991e-07
4.1971370706e-08
0.00032679058009
0.000318409365997
0.000304225548164
0.00029044233172
0.000279022569492
0.00026975506369
0.000262186952187
0.000255949985713
0.00025076606089
0.000246422644399
0.000242753986297
0.000239629007222
0.000236943223304
0.000234612972918
0.000232571054657
0.000230763328595
0.000229146032732
0.000227683655176
0.000226347245722
0.000225113076045
0.000223961575745
0.000222876485935
0.000221844183742
0.000220853140808
0.00021989348657
0.000218956653371
0.000218035085564
0.000217121997415
0.000216211168278
0.000215296768252
0.00021437320603
0.000213434992008
0.000212476612589
0.000211492411913
0.000210476477788
0.000209422529529
0.000208323805869
0.000207172952081
0.000205961906165
0.000204681785266
0.000203322774775
0.000201874024629
0.000200323559554
0.000198658213156
0.000196863599089
0.000194924136599
0.000192823151301
0.000190543075099
0.000188065769593
0.000185372994477
0.000182447033728
0.000179271477964
0.000175832140961
0.000172118065935
0.000168122556775
0.000163844156761
0.000159287492973
0.000154463906572
0.000149391790565
0.000144096557105
0.000138610162739
0.000132970150219
0.000127218232657
0.000121398546326
0.000115555793118
0.000109733527828
0.000103972825062
9.83113899875e-05
9.27830702757e-05
8.74176889875e-05
8.22410479017e-05
7.72749736864e-05
7.25373273116e-05
6.80419562871e-05
6.37986162454e-05
5.98129146149e-05
5.60863348376e-05
5.26163904743e-05
4.9396936588e-05
4.64186367674e-05
4.36695541847e-05
4.11358139816e-05
3.88022760957e-05
3.66531637274e-05
3.4672607335e-05
3.28450826813e-05
3.11557377947e-05
2.9590616297e-05
2.81367914792e-05
2.67824287778e-05
2.55167939094e-05
2.43302224036e-05
2.32140633193e-05
2.21606074916e-05
2.11630077869e-05
2.02151970179e-05
1.93118071188e-05
1.84480921799e-05
1.76198566291e-05
1.68233894682e-05
1.60554046485e-05
1.53129876715e-05
1.45935479599e-05
1.38947767531e-05
1.32146098878e-05
1.25511951424e-05
1.19028634984e-05
1.12681040453e-05
1.06455419628e-05
1.00339194179e-05
9.43207894276e-06
8.83894928899e-06
8.25353350868e-06
7.67489948423e-06
7.10217293137e-06
6.53453344542e-06
5.97121406606e-06
5.41150553287e-06
4.85476654152e-06
4.30044238942e-06
3.74809518334e-06
3.19745093187e-06
2.64847099416e-06
2.10145689457e-06
1.55718054816e-06
1.01690699335e-06
4.81577775708e-07
4.40856078227e-08
0.000299160805049
0.000297199127818
0.000289406617627
0.0002802201
0.000271944475506
0.000264917038306
0.000258980785755
0.000253930406191
0.000249597575038
0.000245852628343
0.000242594307195
0.000239741366675
0.000237227181857
0.00023499637148
0.000233002565297
0.000231206798084
0.000229576263748
0.000228083299565
0.000226704536513
0.000225420181381
0.000224213408875
0.000223069847391
0.000221977144658
0.000220924601116
0.000219902860189
0.000218903645943
0.000217919540411
0.000216943791187
0.000215970144182
0.000214992698456
0.00021400577699
0.000213003808396
0.000211981217232
0.000210932320105
0.000209851225129
0.000208731732866
0.000207567237193
0.000206350625226
0.000205074175911
0.000203729457923
0.000202307228509
0.000200797336615
0.000199188635604
0.000197468913734
0.000195624853888
0.000193642038252
0.000191505017897
0.000189197471315
0.000186702478047
0.000184002932365
0.000181082114748
0.000177924424782
0.000174516257629
0.000170846981468
0.000166909950732
0.000162703477054
0.000158231678101
0.000153505129634
0.000148541247135
0.000143364315797
0.00013800508043
0.000132499825617
0.000126888946635
0.000121215136418
0.000115521443947
0.000109849509411
0.000104238265046
9.87231499047e-05
9.33357593144e-05
8.81038291146e-05
8.30513641904e-05
7.81987612049e-05
7.35628408731e-05
6.91567797142e-05
6.4989984913e-05
6.10679807242e-05
5.73923769125e-05
5.39609773075e-05
5.07680611361e-05
4.78048356391e-05
4.50600233734e-05
4.2520523336e-05
4.01720774416e-05
3.79998831304e-05
3.59891118053e-05
3.41253145372e-05
3.2394714394e-05
3.07843970923e-05
2.92824175657e-05
2.78778417586e-05
2.6560741355e-05
2.5322156587e-05
2.4154038883e-05
2.3049182356e-05
2.20011503909e-05
2.10042018037e-05
2.0053219308e-05
1.91436421332e-05
1.82714036307e-05
1.74328743871e-05
1.66248107777e-05
1.5844308891e-05
1.50887633898e-05
1.43558310292e-05
1.36433982917e-05
1.29495528282e-05
1.22725581815e-05
1.16108315277e-05
1.09629239788e-05
1.03275032638e-05
9.70333841892e-06
9.08928640534e-06
8.48428039223e-06
7.88731974674e-06
7.29746161495e-06
6.71381432089e-06
6.13553271817e-06
5.56181608833e-06
4.99190928621e-06
4.4251086222e-06
3.86077455648e-06
3.29835449327e-06
2.73741869958e-06
2.17770613776e-06
1.61914204039e-06
1.06165267816e-06
5.04241324805e-07
4.45259591988e-08
0.000280804298103
0.000281707377317
0.000277671681744
0.000271542759075
0.000265452745288
0.00026002352981
0.000255305625102
0.000251204075702
0.000247612223165
0.000244441524959
0.000241622568464
0.000239100512338
0.000236830886128
0.00023477668983
0.000232906542968
0.000231193501886
0.000229614265229
0.000228148598054
0.000226778881188
0.000225489737253
0.000224267708829
0.00022310097633
0.000221979108806
0.000220892843347
0.000219833889746
0.000218794757452
0.000217768603211
0.000216749092375
0.000215730274805
0.000214706474491
0.000213672188113
0.000212621989729
0.000211550440565
0.000210452002051
0.000209320950364
0.000208151291059
0.00020693667249
0.000205670297114
0.000204344830119
0.000202952305465
0.000201484030267
0.000199930489769
0.000198281256946
0.000196524913416
0.000194648991748
0.00019263995379
0.000190483224754
0.000188163308296
0.00018566401192
0.000182968812873
0.000180061389133
0.000176926325823
0.000173549983635
0.000169921486635
0.000166033759966
0.00016188453386
0.000157477232514
0.000152821677573
0.000147934538398
0.000142839443795
0.00013756664319
0.000132152106279
0.000126636023325
0.00012106082996
0.000115469069267
0.000109901482348
0.000104395699218
9.89855561224e-05
9.37009063858e-05
8.85677936758e-05
8.36087402471e-05
7.88429660993e-05
7.42864464801e-05
6.99518132646e-05
6.58481685873e-05
6.19809004554e-05
5.8351586639e-05
5.49580569762e-05
5.17946544844e-05
4.88526938979e-05
4.61210728571e-05
4.35869616521e-05
4.12364905227e-05
3.90553676639e-05
3.70293863411e-05
3.51448060212e-05
3.3388612715e-05
3.17486759989e-05
3.02138248138e-05
2.87738639871e-05
2.74195503017e-05
2.61425431203e-05
2.49353405851e-05
2.37912092524e-05
2.27041123172e-05
2.16686398052e-05
2.06799426308e-05
1.97336716208e-05
1.88259218654e-05
1.79531824948e-05
1.71122916137e-05
1.6300396119e-05
1.55149159314e-05
1.4753512274e-05
1.4014059507e-05
1.3294620175e-05
1.25934228217e-05
1.190884229e-05
1.12393821275e-05
1.05836588831e-05
9.9403879816e-06
9.30837103005e-06
8.6864843097e-06
8.07366838242e-06
7.46891865809e-06
6.87127697283e-06
6.27982420598e-06
5.69367426194e-06
5.11196986196e-06
4.533881049e-06
3.95860744517e-06
3.38538503481e-06
2.81349494964e-06
2.24225933375e-06
1.67096878644e-06
1.09858058143e-06
5.22862878119e-07
4.53360686338e-08
0.000267918269571
0.000270051345793
0.000268260631318
0.000264247795458
0.000259763690032
0.000255525477687
0.000251722723216
0.00024834998368
0.000245350027342
0.000242662532865
0.000240236566251
0.000238031393547
0.000236014432639
0.000234159085967
0.000232443095736
0.000230847422797
0.000229355507643
0.000227952778651
0.000226626311102
0.000225364575732
0.000224157240492
0.000222995004959
0.000221869456128
0.000220772939486
0.000219698441996
0.000218639484934
0.000217590027304
0.000216544371721
0.000215497078253
0.000214442886265
0.000213376639179
0.000212293211578
0.00021118743824
0.00021005404387
0.000208887572381
0.000207682314554
0.000206432233006
0.000205130883482
0.000203771331696
0.000202346065327
0.000200846901373
0.000199264890087
0.00019759021831
0.000195812117455
0.000193918784897
0.000191897332436
0.000189733781667
0.000187413133253
0.000184919543626
0.000182236646184
0.00017934805053
0.000176238038911
0.000172892451765
0.000169299718257
0.000165451953795
0.000161346029839
0.000156984529533
0.000152376524644
0.000147538116713
0.000142492655435
0.000137270491799
0.000131908095404
0.000126446436676
0.000120928748737
0.000115398067632
0.000109895080602
0.000104456773138
9.91158647794e-05
9.39008219563e-05
8.88362708972e-05
8.3943487187e-05
7.92407304436e-05
7.47433221955e-05
7.0463498076e-05
6.6410138571e-05
6.25884952391e-05
5.90000172346e-05
5.56423635015e-05
5.25096517916e-05
4.95929432777e-05
4.68809057356e-05
4.43605615449e-05
4.20180212398e-05
3.98391249591e-05
3.78099485623e-05
3.59171642183e-05
3.41482685847e-05
3.24917036479e-05
3.09368981421e-05
2.94742548736e-05
2.809510427e-05
2.67916391565e-05
2.55568410877e-05
2.43844049433e-05
2.32686658497e-05
2.22045307011e-05
2.11874153561e-05
2.02131878637e-05
1.92781176138e-05
1.83788300798e-05
1.75122666789e-05
1.66756492506e-05
1.58664486323e-05
1.50823568523e-05
1.43212624803e-05
1.35812287314e-05
1.28604739446e-05
1.21573541113e-05
1.14703471494e-05
1.07980386636e-05
1.01391089478e-05
9.49232102488e-06
8.8565095293e-06
8.23057028443e-06
7.61345044374e-06
7.00413913316e-06
6.40165858393e-06
5.80505585067e-06
5.21339527652e-06
4.62575186015e-06
4.04120521621e-06
3.45883207654e-06
2.87768984903e-06
2.29676901764e-06
1.71485676705e-06
1.13018880744e-06
5.39721959739e-07
4.75275637082e-08
0.000258458695501
0.000261058124854
0.000260617238186
0.000258087622478
0.000254819587715
0.000251508519214
0.000248420144272
0.000245616996037
0.000243084927607
0.000240788511936
0.00023869148091
0.000236762647446
0.000234976547112
0.000233312516938
0.00023175355643
0.000230285375797
0.000228895695722
0.00022757375842
0.000226309991174
0.000225095772068
0.000223923261358
0.000222785274109
0.000221675178523
0.00022058681043
0.000219514398204
0.000218452494575
0.000217395915752
0.000216339678375
0.000215278940413
0.000214208948331
0.000213124982659
0.00021202230379
0.000210896097423
0.000209741418818
0.000208553134952
0.000207325863596
0.000206053908261
0.000204731187961
0.000203351160712
0.000201906739907
0.000200390202992
0.000198793092683
0.000197106112189
0.000195319018239
0.000193420519147
0.000191398190526
0.000189238428497
0.000186926469398
0.000184446514562
0.000181782005829
0.000178916096937
0.000175832351755
0.000172515668533
0.000168953383465
0.000165136461751
0.000161060663087
0.000156727585426
0.000152145531706
0.00014733016292
0.000142304856079
0.00013710058759
0.000131755086472
0.000126311058821
0.000120813568246
0.000115307094947
0.000109833025277
0.000104428230727
9.91246597361e-05
9.39496138773e-05
8.89264691449e-05
8.4075420658e-05
7.94139531496e-05
7.49569258833e-05
7.07163460965e-05
6.67009873715e-05
6.29160025713e-05
5.93626555518e-05
5.60382757483e-05
5.29365021139e-05
5.00478159053e-05
4.73602874197e-05
4.48604147108e-05
4.25339294048e-05
4.0366477945e-05
3.83441338028e-05
3.64537380322e-05
3.46830920697e-05
3.30210378298e-05
3.14574601193e-05
2.99832407587e-05
2.85901862717e-05
2.72709441163e-05
2.60189168522e-05
2.48281797346e-05
2.36934045214e-05
2.26097906826e-05
2.15730041646e-05
2.05791233868e-05
1.96245918293e-05
1.87061765289e-05
1.7820931739e-05
1.69661670998e-05
1.61394196783e-05
1.5338429351e-05
1.4561117023e-05
1.38055652864e-05
1.30700011221e-05
1.2352780351e-05
1.16523735213e-05
1.09673530101e-05
1.02963810849e-05
9.63819875051e-06
8.99161517328e-06
8.3554975436e-06
7.72876120935e-06
7.11035998039e-06
6.49927646594e-06
5.89451233634e-06
5.29507822886e-06
4.69998267723e-06
4.10821832381e-06
3.51874103632e-06
2.93043115545e-06
2.34201228782e-06
1.75187689152e-06
1.15773473818e-06
5.56012131495e-07
5.16818200802e-08
0.00025126004045
0.000253971363935
0.000254341178134
0.00025285524359
0.00025051890658
0.000247948740215
0.000245438148931
0.000243094906461
0.000240940071943
0.000238960840871
0.000237134603673
0.000235438510709
0.000233852563545
0.000232360101374
0.00023094739159
0.000229603020099
0.000228317331432
0.000227081985099
0.000225889626107
0.000224733647082
0.000223608017478
0.00022250715944
0.000221425855078
0.000220359174383
0.000219302416551
0.000218251060162
0.000217200719873
0.000216147102298
0.000215085963079
0.000214013070759
0.000212924166944
0.000211814925739
0.000210680911627
0.00020951753503
0.000208320004705
0.000207083276015
0.000205801993962
0.000204470429756
0.000203082409527
0.000201631233775
0.000200109586231
0.00019850943122
0.00019682189964
0.000195037165571
0.000193144319027
0.000191131245947
0.00018898453499
0.000186689442047
0.000184229956742
0.000181589027023
0.00017874900193
0.000175692339638
0.000172402590631
0.000168865606131
0.000165070859489
0.00016101273808
0.000156691692825
0.000152115204446
0.000147298567482
0.000142265430615
0.000137047871972
0.000131685635021
0.000126224167055
0.000120711468763
0.000115194452176
0.000109715920941
0.00010431307278
9.90173146558e-05
9.38548873266e-05
8.88479869946e-05
8.40158363329e-05
7.93753126149e-05
7.49410135754e-05
7.07249081874e-05
6.6735804994e-05
6.29788233082e-05
5.94550079438e-05
5.6161214512e-05
5.30903549314e-05
5.02320047951e-05
4.75732720197e-05
4.5099764359e-05
4.27964958869e-05
4.06486232543e-05
3.86419678665e-05
3.67633329841e-05
3.50006545781e-05
3.33430336887e-05
3.17806939111e-05
3.03048977905e-05
2.89078454709e-05
2.75825701318e-05
2.63228384117e-05
2.51230597449e-05
2.39782060227e-05
2.28837415036e-05
2.18355622292e-05
2.08299438554e-05
1.98634967992e-05
1.89331276083e-05
1.803600562e-05
1.71695340486e-05
1.63313248156e-05
1.55191764882e-05
1.47310548465e-05
1.3965075616e-05
1.3219489031e-05
1.24926658842e-05
1.17830848223e-05
1.108932062e-05
1.04100332508e-05
9.74395753305e-06
9.08989320149e-06
8.44669520547e-06
7.81326408823e-06
7.18853622744e-06
6.57147371638e-06
5.96105347305e-06
5.3562549079e-06
4.75604473433e-06
4.15935607333e-06
3.56505583142e-06
2.97188814709e-06
2.37837022277e-06
1.78259989771e-06
1.18192173718e-06
5.72428753077e-07
5.81796628363e-08
0.000245625422383
0.000248288108477
0.000249140640823
0.00024838954009
0.000246769072011
0.000244798076365
0.000242765716364
0.000240804872407
0.000238962689967
0.00023724574286
0.000235644161879
0.000234143109663
0.000232727658677
0.000231384526564
0.000230102434832
0.000228871933309
0.000227685067438
0.000226535042998
0.000225415941501
0.000224322496261
0.000223249922628
0.000222193791318
0.000221149933895
0.000220114371275
0.000219083258221
0.000218052840014
0.000217019414626
0.00021597929788
0.000214928789467
0.000213864145429
0.000212781547439
0.000211677071026
0.000210546651861
0.000209386049258
0.000208190805984
0.00020695620334
0.00020567721026
0.00020434842499
0.000202964007587
0.000201517601287
0.000200002240557
0.000198410243781
0.000196733089062
0.000194961273211
0.00019308415717
0.00019108980695
0.000188964848634
0.000186694369918
0.000184261918478
0.000181649665702
0.000178838814962
0.000175810323881
0.000172545966731
0.000169029684596
0.000165249081585
0.000161196878734
0.00015687218345
0.000152281555447
0.000147439935711
0.000142371423502
0.00013710963699
0.000131697122322
0.000126183201389
0.00012062009476
0.000115058255583
0.000109542634028
0.000104111128364
9.87947341885e-05
9.36186257978e-05
8.86037996694e-05
8.3768567937e-05
7.91293669224e-05
7.47007568182e-05
7.04948858747e-05
6.65207635293e-05
6.27835590944e-05
5.92840724367e-05
5.60185330216e-05
5.29788538032e-05
5.0153347045e-05
4.75277640284e-05
4.50864383121e-05
4.28133249881e-05
4.06928060452e-05
3.87102223007e-05
3.68521589352e-05
3.51065437751e-05
3.34626221856e-05
3.1910862085e-05
3.04428274545e-05
2.90510446378e-05
2.77288750216e-05
2.64704005018e-05
2.52703238129e-05
2.41238834397e-05
2.30267817184e-05
2.1975124349e-05
2.09653695169e-05
1.99942849921e-05
1.90589117924e-05
1.81565332278e-05
1.72846483509e-05
1.64409490177e-05
1.56232999063e-05
1.48297209654e-05
1.40583718532e-05
1.33075380101e-05
1.25756180566e-05
1.18611122654e-05
1.11626118783e-05
1.04787890724e-05
9.80838738913e-06
9.15021244968e-06
8.50312276904e-06
7.86602046107e-06
7.23784156025e-06
6.61754557399e-06
6.00410363225e-06
5.39648414836e-06
4.793634003e-06
4.1944515739e-06
3.59774477337e-06
3.00216173408e-06
2.40607316008e-06
1.80737544996e-06
1.20318229697e-06
5.89403320089e-07
6.72720613938e-08
0.000241119629842
0.000243665300844
0.000244799079459
0.000244564876449
0.000243494007665
0.000242009296906
0.000240377553837
0.000238741205868
0.000237164621255
0.000235669736403
0.000234257952993
0.000232922037168
0.000231652026162
0.000230437892404
0.00022927057309
0.000228142230325
0.000227046182162
0.000225976717532
0.000224928891695
0.000223898341331
0.000222881131294
0.000221873633094
0.000220872430662
0.000219874247721
0.000218875891417
0.000217874210363
0.000216866057067
0.000215848255538
0.000214817572156
0.000213770691382
0.000212704189837
0.00021161450947
0.000210497928866
0.000209350531732
0.000208168171547
0.000206946431207
0.000205680576263
0.000204365500049
0.00020299565859
0.000201564992727
0.000200066834435
0.000198493793985
0.000196837624699
0.000195089063027
0.000193237644449
0.000191271501404
0.000189177159856
0.000186939367609
0.000184541010659
0.000181963200446
0.000179185635506
0.000176187337846
0.000172947815781
0.000169448601277
0.000165674979388
0.000161617649867
0.000157274127444
0.000152649892194
0.00014775946701
0.000142627498336
0.00013728953821
0.000131791784518
0.000126188783891
0.000120538567979
0.000114896464714
0.000109310349506
0.000103819146275
9.84534855769e-05
9.32373635956e-05
8.81904683735e-05
8.33302296287e-05
7.86728301346e-05
7.42330563164e-05
7.00234836635e-05
6.60535057372e-05
6.23284321258e-05
5.88487827919e-05
5.56099760385e-05
5.2602598143e-05
4.98132731044e-05
4.72259388526e-05
4.48232257211e-05
4.25876653887e-05
4.05025773028e-05
3.85526045083e-05
3.67239532949e-05
3.50044233572e-05
3.33833122064e-05
3.18512584086e-05
3.04000662404e-05
2.9022536182e-05
2.77123129674e-05
2.64637551639e-05
2.52718260028e-05
2.41320032519e-05
2.3040205238e-05
2.19927301716e-05
2.09862062091e-05
2.00175501274e-05
1.90839328521e-05
1.8182750466e-05
1.73115995821e-05
1.64682562301e-05
1.5650657556e-05
1.48568858073e-05
1.4085154153e-05
1.33337940003e-05
1.26012435032e-05
1.18860370347e-05
1.11867953949e-05
1.05022165833e-05
9.83106694017e-06
9.17217248978e-06
8.52441026831e-06
7.88669939853e-06
7.25799155031e-06
6.63726028032e-06
6.02348840084e-06
5.41565199358e-06
4.81269865723e-06
4.21351586532e-06
3.61688235289e-06
3.02139090094e-06
2.42532477168e-06
1.82646495506e-06
1.22180881042e-06
6.07205488508e-07
7.91079532276e-08
0.000237459523029
0.000239863255343
0.000241153241961
0.000241281651559
0.000240631818089
0.000239541548667
0.00023824696265
0.000236889238215
0.000235542373443
0.000234239498214
0.000232991371539
0.000231797643967
0.000230653121269
0.000229550999607
0.000228484402132
0.000227447016002
0.00022643327946
0.000225438360676
0.000224458053094
0.000223488648466
0.000222526815281
0.000221569493232
0.000220613806067
0.000219656991475
0.000218696345022
0.000217729178462
0.000216752782333
0.000215764391835
0.000214761160803
0.000213740137805
0.000212698242214
0.000211632239683
0.000210538716011
0.000209414048333
0.000208254372524
0.00020705554551
0.00020581310093
0.0002045221962
0.000203177548471
0.000201773356362
0.00020030320351
0.000198759939273
0.000197135531366
0.000195420885509
0.000193605629162
0.000191677861718
0.000189623884393
0.000187427942146
0.000185072039147
0.000182535926651
0.000179797397212
0.0001768330283
0.000173619467303
0.000170135214114
0.000166362664583
0.000162290044294
0.00015791294791
0.000153235534277
0.000148271736443
0.000143046727337
0.000137598314647
0.000131977272375
0.00012624505154
0.000120467588441
0.000114706787134
0.000109014306859
0.00010343038889
9.7985289986e-05
9.27016126589e-05
8.75975346565e-05
8.26896099461e-05
7.79940034849e-05
7.35260475423e-05
6.92990165469e-05
6.53228701338e-05
6.16031347089e-05
5.8139982729e-05
5.4927771835e-05
5.19553380318e-05
4.92070825427e-05
4.66645736626e-05
4.43082369037e-05
4.21187755732e-05
4.00781458693e-05
3.81700822313e-05
3.63802684348e-05
3.46962778273e-05
3.31073904254e-05
3.16043630661e-05
3.01791984362e-05
2.88249360755e-05
2.75354740195e-05
2.63054217167e-05
2.51299810784e-05
2.40048511867e-05
2.29261521469e-05
2.18903640776e-05
2.08942779222e-05
1.99349554403e-05
1.90096963225e-05
1.81160108486e-05
1.72515968779e-05
1.64143202509e-05
1.56021978878e-05
1.48133830383e-05
1.40461522504e-05
1.32988937169e-05
1.25700967233e-05
1.1858341967e-05
1.11622925486e-05
1.04806854572e-05
9.81232337187e-06
9.15606659547e-06
8.51082489761e-06
7.87554897929e-06
7.24922114565e-06
6.63084456243e-06
6.01943010383e-06
5.41397918712e-06
4.8134599607e-06
4.21677255197e-06
3.62269650524e-06
3.02980993096e-06
2.4363657862e-06
1.84010847563e-06
1.23801870226e-06
6.25992066146e-07
9.37462524683e-08
0.000234453619031
0.000236710494572
0.000238078241008
0.000238459580458
0.00023813138075
0.000237360293347
0.00023634957499
0.000235232405256
0.000234086485049
0.00023295230075
0.000231847883314
0.000230778794247
0.000229744233856
0.000228740522984
0.000227762966769
0.000226806780364
0.0002258674962
0.000224941098304
0.000224024021991
0.00022311309416
0.000222205453475
0.000221298469692
0.00022038967061
0.000219476679437
0.000218557162605
0.000217628789377
0.000216689195781
0.000215735948761
0.000214766521931
0.000213778271279
0.000212768411795
0.000211733993767
0.000210671877659
0.000209578706482
0.000208450874441
0.000207284490477
0.000206075334964
0.000204818807386
0.000203509862116
0.000202142928576
0.000200711810908
0.000199209561058
0.000197628317939
0.000195959104689
0.000194191576966
0.00019231371957
0.000190311499431
0.000188168504246
0.000185865631747
0.000183380945304
0.000180689867086
0.000177765910525
0.000174582107243
0.000171113109377
0.000167337662478
0.000163240908796
0.000158816074067
0.000154065629032
0.000149002583061
0.000143652433745
0.000138055434826
0.000132267925042
0.000126360419816
0.000120409667422
0.000114486439487
0.000108647129864
0.000102933583765
9.73756915566e-05
9.19943454017e-05
8.68059040506e-05
8.18260405512e-05
7.70712191211e-05
7.25577009246e-05
6.829972303e-05
6.43079472257e-05
6.05881409057e-05
5.71399922264e-05
5.39564396996e-05
5.10239963464e-05
4.83241434309e-05
4.58353811602e-05
4.35353288137e-05
4.14024027712e-05
3.94168791119e-05
3.75613811476e-05
3.58209478009e-05
3.41828542641e-05
3.26363204521e-05
3.11721946564e-05
2.97826593772e-05
2.84609790373e-05
2.72012935378e-05
2.59984539356e-05
2.48478935908e-05
2.37455277551e-05
2.26876752875e-05
2.16709973023e-05
2.06924486489e-05
1.97492390989e-05
1.88388018778e-05
1.79587677932e-05
1.71069436455e-05
1.62812939574e-05