/*--------------------------------*- C++ -*----------------------------------*\
  =========                 |
  \\      /  F ield         | OpenFOAM: The Open Source CFD Toolbox
   \\    /   O peration     | Website:  https://openfoam.org
    \\  /    A nd           | Version:  7
     \\/     M anipulation  |
\*---------------------------------------------------------------------------*/
FoamFile
{
    version     2.0;
    format      ascii;
    class       surfaceScalarField;
    location    "1980";
    object      phi;
}
// * * * * * * * * * * * * * * * * * * * * * * * * * * * * * * * * * * * * * //

dimensions      [0 3 -1 0 0 0 0];

internalField   nonuniform List<scalar> 
16192
(
6.92920832538e-10
2.44579167462e-10
4.93558861895e-10
1.99361972565e-10
3.6481863425e-10
1.28740229215e-10
2.82230983468e-10
8.25876519965e-11
2.27599435163e-10
5.46315492679e-11
1.89980201557e-10
3.76192344474e-11
1.63030369371e-10
2.69498329746e-11
1.43036959113e-10
1.99934110271e-11
1.27765394715e-10
1.52715651431e-11
1.15823004991e-10
1.19423904571e-11
1.06309195121e-10
9.51381057676e-12
9.86203379195e-11
7.68885789584e-12
9.23382563464e-11
6.28208223598e-12
8.71645876294e-11
5.17366936245e-12
8.28809275e-11
4.28366073492e-12
7.93238617892e-11
3.55706629245e-12
7.63688476992e-11
2.95501462261e-12
7.39195116359e-11
2.4493365664e-12
7.19003570943e-11
2.01915498774e-12
7.02516782944e-11
1.64867921206e-12
6.89259364332e-11
1.32574221054e-12
6.78851291954e-11
1.04080755083e-12
6.70988489402e-11
7.86280501962e-13
6.65428285602e-11
5.56020590989e-13
6.61978384423e-11
3.44990263343e-13
6.60488411156e-11
1.48997441893e-13
6.6084337169e-11
-3.54959971804e-14
6.62958554464e-11
-2.11518238801e-13
6.66775517202e-11
-3.8169627886e-13
6.72258915093e-11
-5.48339789377e-13
6.79393969425e-11
-7.13505450395e-13
6.88184416948e-11
-8.79044729418e-13
6.98650798193e-11
-1.04663807768e-12
7.10828969185e-11
-1.21781696171e-12
7.24768715227e-11
-1.39397438565e-12
7.40532354452e-11
-1.57636354646e-12
7.58193198124e-11
-1.7660838368e-12
7.77833731986e-11
-1.96405261605e-12
7.99543352035e-11
-2.1709609936e-12
8.23415479691e-11
-2.38721142175e-12
8.4954384948e-11
-2.61283530043e-12
8.78017763009e-11
-2.84738924709e-12
9.08916092818e-11
-3.08983045038e-12
9.42299861666e-11
-3.33837384161e-12
9.7820327669e-11
-3.5903379607e-12
1.01662323125e-10
-3.84199133771e-12
1.05750745533e-10
-4.0884177453e-12
1.10074175631e-10
-4.32342482522e-12
1.14613707416e-10
-4.53952595811e-12
1.19341740392e-10
-4.72802654915e-12
1.24220989494e-10
-4.87924215607e-12
1.29203861509e-10
-4.98286453201e-12
1.3423234402e-10
-5.02847461193e-12
1.39238532925e-10
-5.0061806102e-12
1.44145882409e-10
-4.90734096957e-12
1.48871209588e-10
-4.72531852507e-12
1.53327423637e-10
-4.45620550457e-12
1.57426884664e-10
-4.09945274199e-12
1.6108521918e-10
-3.65832682902e-12
1.64225331278e-10
-3.14010523312e-12
1.66781253262e-10
-2.55591635038e-12
1.68701416003e-10
-1.92015859016e-12
1.69950925274e-10
-1.24950699586e-12
1.70512550914e-10
-5.61625390324e-13
1.70386353965e-10
1.26194957512e-13
1.69588139342e-10
7.98210483297e-13
1.68147137766e-10
1.44099533488e-12
1.66103384512e-10
2.04374524029e-12
1.63505199543e-10
2.59817539753e-12
1.60407041027e-10
3.09814780323e-12
1.56867819994e-10
3.5392094119e-12
1.52949609406e-10
3.9181984399e-12
1.48716585031e-10
4.2330118899e-12
1.44234019163e-10
4.48255336838e-12
1.39567187486e-10
4.66681930314e-12
1.34780127214e-10
4.78704828947e-12
1.29934265465e-10
4.84585024208e-12
1.25087008893e-10
4.84724574091e-12
1.20290425547e-10
4.79657320883e-12
1.15590158893e-10
4.70025734028e-12
1.11024684538e-10
4.56546582203e-12
1.06624971117e-10
4.39970573737e-12
1.02414545377e-10
4.2104188145e-12
9.84099113925e-11
4.00462784701e-12
9.46212373137e-11
3.78866860555e-12
9.10532113358e-11
3.56802117759e-12
8.77059708303e-11
3.34723624091e-12
8.4576026876e-11
3.12994022746e-12
8.16571260216e-11
2.91889752685e-12
7.89410149376e-11
2.71610816215e-12
7.64180901784e-11
2.52292211131e-12
7.40779313875e-11
2.3401564341e-12
7.1909723591e-11
2.16820560982e-12
6.99025817083e-11
2.00713989641e-12
6.8045790683e-11
1.85678912999e-12
6.63289770474e-11
1.71681187449e-12
6.47422246503e-11
1.58675067075e-12
6.32761477901e-11
1.46607522278e-12
6.19219309751e-11
1.35421517471e-12
6.06713448385e-11
1.25058455645e-12
5.95167438475e-11
1.15459938437e-12
5.84510521571e-11
1.06569012649e-12
5.74677404896e-11
9.83310063328e-13
5.65607981173e-11
9.06940801302e-13
5.57247009464e-11
8.36095552438e-13
5.49543782703e-11
7.70321087002e-13
5.42451779446e-11
7.09198686817e-13
5.35928315392e-11
6.52344796175e-13
5.2993418328e-11
5.99411553946e-13
5.24433288708e-11
5.50087834116e-13
5.19392262266e-11
5.04100978994e-13
5.14780046636e-11
4.61219940595e-13
5.10567428054e-11
4.21260204596e-13
5.06726496609e-11
3.84091547602e-13
5.03229985066e-11
3.4964954287e-13
5.00050442422e-11
3.17952730005e-13
4.97159149685e-11
2.89127749232e-13
4.94524669281e-11
2.6344662289e-13
4.92110832823e-11
2.41382275055e-13
4.89873891193e-11
2.23692944872e-13
4.87758352509e-11
2.11552752476e-13
4.85690762569e-11
2.06758094164e-13
4.83570181624e-11
2.12057358337e-13
4.81253475656e-11
2.31670110578e-13
4.78533160942e-11
2.7203111433e-13
4.75109228008e-11
3.42393075873e-13
4.70580325556e-11
4.52890205713e-13
5.81074541094e-13
9.53406338869e-10
2.28672830963e-10
8.59633317342e-10
2.93134997201e-10
7.45071341981e-10
2.43302207003e-10
6.41866909724e-10
1.85792085987e-10
5.56648598077e-10
1.3984986228e-10
4.88215153598e-10
1.06052680132e-10
4.33545274613e-10
8.16197130892e-11
3.89686675262e-10
6.38520114622e-11
3.54226037805e-10
5.07322036385e-11
3.25306859501e-10
4.0861569761e-11
3.01529633393e-10
3.32910376352e-11
2.81842107638e-10
2.73763845584e-11
2.65448599055e-10
2.26755916683e-11
2.51741704373e-10
1.8880564838e-11
2.40252694102e-10
1.57726717282e-11
2.3061590394e-10
1.31938571079e-11
2.22543175162e-10
1.10277439681e-11
2.15805395342e-10
9.18711687359e-12
2.10219041499e-10
7.60550921748e-12
2.05636262824e-10
6.23145818271e-12
2.01937487839e-10
5.02451738211e-12
1.99025850847e-10
3.95244463032e-12
1.96822943875e-10
2.98918744692e-12
1.95265546034e-10
2.11341830619e-12
1.9430308144e-10
1.30745461743e-12
1.93895626544e-10
5.56452008995e-13
1.94012335102e-10
-1.5220498216e-13
1.94630183032e-10
-8.29366662257e-13
1.95732958139e-10
-1.4844719455e-12
1.97310439549e-10
-2.12582178123e-12
1.99357720791e-10
-2.76078728587e-12
2.01874638628e-10
-3.39596311208e-12
2.04865274256e-10
-4.03727418176e-12
2.08337497255e-10
-4.6900402893e-12
2.12302522796e-10
-5.35900007119e-12
2.1677445308e-10
-6.04829369907e-12
2.21769771341e-10
-6.76140163954e-12
2.27306755154e-10
-7.50103553778e-12
2.33404771793e-10
-8.26897624922e-12
2.40083416507e-10
-9.06585414464e-12
2.47361451714e-10
-9.89086784748e-12
2.55255506626e-10
-1.07414407171e-11
2.6377850016e-10
-1.16128197045e-11
2.72937761535e-10
-1.24976299964e-11
2.82732840692e-10
-1.3385410919e-11
2.93153031064e-10
-1.42621744485e-11
3.04174667157e-10
-1.51100455027e-11
3.15758312751e-10
-1.59070609526e-11
3.27846014121e-10
-1.66272167553e-11
3.40358853845e-10
-1.72408545809e-11
3.53195088533e-10
-1.77154641109e-11
3.66229179998e-10
-1.8016942277e-11
3.79312017295e-10
-1.8111297371e-11
3.92272575995e-10
-1.79667241134e-11
4.04921168751e-10
-1.75559181675e-11
4.17054323564e-10
-1.68584577225e-11
4.28461189269e-10
-1.58630560001e-11
4.38931222851e-10
-1.45694719897e-11
4.48262751884e-10
-1.29898430278e-11
4.56271834232e-10
-1.11491768443e-11
4.6280067129e-10
-9.08474546019e-12
4.67724732483e-10
-6.84421518002e-12
4.70957788171e-10
-4.48256194098e-12
4.72454289755e-10
-2.05813032229e-12
4.72208954414e-10
3.71522790211e-13
4.70253899668e-10
2.75325383098e-12
4.66654070178e-10
5.04080993314e-12
4.61501840518e-10
7.19595713529e-12
4.5491158433e-10
9.18841153945e-12
4.47014761168e-10
1.09949493105e-11
4.3795574605e-10
1.25982018044e-11
4.27888338901e-10
1.39855823651e-11
4.16972707755e-10
1.51486197376e-11
4.05372472545e-10
1.60827656633e-11
3.93251696957e-10
1.67875726749e-11
3.80771686338e-10
1.72670377304e-11
3.68087635437e-10
1.75298811942e-11
3.55345298752e-10
1.7589563916e-11
3.42677932925e-10
1.74639220234e-11
3.30203776194e-10
1.71743986407e-11
3.18024278543e-10
1.67449495714e-11
3.06223202563e-10
1.62007693362e-11
2.94866600615e-10
1.55670097739e-11
2.84003573979e-10
1.48676448197e-11
2.7366764723e-10
1.41245868515e-11
2.6387856018e-10
1.33571007936e-11
2.54644280023e-10
1.2581509858e-11
2.45963064401e-10
1.18111501123e-11
2.37825443709e-10
1.10565131181e-11
2.30216034651e-10
1.03255126834e-11
2.2311513351e-10
9.6238191327e-12
2.16500069909e-10
8.95521628152e-12
2.10346322357e-10
8.32194965467e-12
2.04628412959e-10
7.72504600725e-12
1.99320605059e-10
7.16459386599e-12
1.94397432563e-10
6.63998132617e-12
1.8983408814e-10
6.15009208992e-12
1.85606697333e-10
5.69346308145e-12
1.81692500989e-10
5.26840856095e-12
1.78069966832e-10
4.87311577318e-12
1.74718845919e-10
4.5057173194e-12
1.71620188364e-10
4.16434470136e-12
1.68756328181e-10
3.84716721653e-12
1.66110846457e-10
3.55241948463e-12
1.63668518278e-10
3.27842063852e-12
1.61415248841e-10
3.02358742157e-12
1.59338001021e-10
2.78644335506e-12
1.57424717136e-10
2.5656255291e-12
1.55664234811e-10
2.359890689e-12
1.54046197598e-10
2.16812187183e-12
1.52560958211e-10
1.98933717193e-12
1.51199472986e-10
1.82270201102e-12
1.49953183189e-10
1.66754685873e-12
1.48813879233e-10
1.52339243488e-12
1.47773540403e-10
1.38998535695e-12
1.46824142504e-10
1.26734774082e-12
1.45957421696e-10
1.1558457831e-12
1.45164582137e-10
1.05628360818e-12
1.4443593114e-10
9.7003090201e-13
1.43760427687e-10
8.99194330184e-13
1.43125135654e-10
8.46843031104e-13
1.42514601753e-10
8.17290649415e-13
1.41910254013e-10
8.16404149634e-13
1.41290126185e-10
8.517974514e-13
1.40629760325e-10
9.32396901169e-13
1.3990649057e-10
1.0656630052e-12
1.39113644526e-10
1.2457364742e-12
1.41043951247e-12
9.76221091518e-10
1.89951741013e-10
9.62957051824e-10
3.06399038482e-10
9.06011137076e-10
3.0024812281e-10
8.33545551211e-10
2.58257672638e-10
7.60556649306e-10
2.12838764756e-10
6.93458821752e-10
1.73150508157e-10
6.34326256887e-10
1.40752278367e-10
5.83266590463e-10
1.14911678269e-10
5.39599409172e-10
9.43993852669e-11
5.02405300716e-10
7.80556785217e-11
4.70764364118e-10
6.49319744852e-11
4.43847970776e-10
5.42927781132e-11
4.20944201183e-10
4.55793614091e-11
4.01455290633e-10
3.83694754891e-11
3.84884805471e-10
3.23431569116e-11
3.70822397648e-10
2.72562648939e-11
3.58929354496e-10
2.29207869912e-11
3.48926051847e-10
1.91904193262e-11
3.40581501504e-10
1.59500592588e-11
3.3370482213e-10
1.3108137179e-11
3.28138348089e-10
1.05909909307e-11
3.23752083753e-10
8.33870839149e-12
3.20439241909e-10
6.30202859512e-12
3.18112648516e-10
4.44001092007e-12
3.1670183633e-10
2.71826590463e-12
3.16150686356e-10
1.10760100976e-12
3.16415503839e-10
-4.17023547877e-13
3.1746343812e-10
-1.87730207858e-12
3.19271172808e-10
-3.29220784965e-12
3.21823829158e-10
-4.67847936046e-12
3.25114030251e-10
-6.05098963857e-12
3.29141081994e-10
-7.42301606551e-12
3.3391022992e-10
-8.80642327121e-12
3.39431953947e-10
-1.02117653379e-11
3.45721262307e-10
-1.16483093006e-11
3.52796945872e-10
-1.31239778684e-11
3.60680750597e-10
-1.4645206682e-11
3.69396424086e-10
-1.62167089289e-11
3.78968587885e-10
-1.78411395054e-11
3.89421386052e-10
-1.95186511838e-11
4.00776858625e-10
-2.12463386777e-11
4.13052992964e-10
-2.30175725575e-11
4.26261412878e-10
-2.48212363409e-11
4.40404683339e-10
-2.66408962698e-11
4.55473234055e-10
-2.84539565297e-11
4.71441946634e-10
-3.02308808915e-11
4.8826650262e-10
-3.19345943432e-11
5.05879658376e-10
-3.35202084638e-11
5.24187686621e-10
-3.49352357159e-11
5.43067300466e-10
-3.61204580478e-11
5.62363433248e-10
-3.7011585536e-11
5.81888276566e-10
-3.75417732683e-11
6.01421957354e-10
-3.76449650617e-11
6.20715162263e-10
-3.7259915256e-11
6.3949389052e-10
-3.63346323169e-11
6.57466357406e-10
-3.48309103915e-11
6.74331889101e-10
-3.27285738541e-11
6.89791463893e-10
-3.00290337049e-11
7.03559353281e-10
-2.67577207483e-11
7.15375106e-10
-2.29649198124e-11
7.25014911523e-10
-1.87245438637e-11
7.32301253254e-10
-1.41305528937e-11
7.37109805468e-10
-9.29111379168e-12
7.39372832903e-10
-4.32116120708e-12
7.3907889191e-10
6.65456392315e-13
7.36269267296e-10
5.5628674352e-12
7.3103208911e-10
1.02779738104e-11
7.23495262093e-10
1.47327672001e-11
7.13819221773e-10
1.88644327677e-11
7.02190228424e-10
2.26239221175e-11
6.88814501654e-10
2.59739070295e-11
6.73913140032e-10
2.88869220248e-11
6.57717542989e-10
3.13441947458e-11
6.40464996001e-10
3.33352910238e-11
6.22394155521e-10
3.4858392185e-11
6.03740329555e-10
3.59208437539e-11
5.84730626211e-10
3.65395657604e-11
5.65579199299e-10
3.67409734592e-11
5.46482912806e-10
3.65601925661e-11
5.27617763379e-10
3.603953366e-11
5.09136332746e-10
3.5226367244e-11
4.91166421663e-10
3.41706689375e-11
4.73810870363e-10
3.29225509047e-11
4.57148442881e-10
3.15300634217e-11
4.41235559782e-10
3.00374621566e-11
4.26108623506e-10
2.84840303138e-11
4.11786679126e-10
2.69034483081e-11
3.982741871e-10
2.53236369884e-11
3.85563730495e-10
2.37669651479e-11
3.73638533685e-10
2.22507054636e-11
3.62474715589e-10
2.07876335613e-11
3.52043242436e-10
1.93866861233e-11
3.42311572583e-10
1.80536163912e-11
3.33245008372e-10
1.679160732e-11
3.24807780072e-10
1.56018193441e-11
3.16963895421e-10
1.44838632783e-11
3.09677787773e-10
1.34361970392e-11
3.02914797195e-10
1.24564510236e-11
2.96641513773e-10
1.15416893026e-11
2.90826011167e-10
1.06886157279e-11
2.85437992257e-10
9.89373350727e-12
2.80448867263e-10
9.15346698655e-12
2.75831778855e-10
8.46425283446e-12
2.71561587995e-10
7.82260756323e-12
2.67614829101e-10
7.22517666658e-12
2.63969643166e-10
6.6687705021e-12
2.60605692974e-10
6.15039061238e-12
2.57504065275e-10
5.66725031335e-12
2.54647160735e-10
5.21679224704e-12
2.52018573609e-10
4.79670604949e-12
2.49602959323e-10
4.40494846087e-12
2.47385889422e-10
4.03976897235e-12
2.45353689741e-10
3.6997435797e-12
2.43493259032e-10
3.38382027484e-12
2.41791861913e-10
3.09137962734e-12
2.40236891935e-10
2.82231501137e-12
2.3881559847e-10
2.57713661903e-12
2.37514775825e-10
2.35710383764e-12
2.36320416548e-10
2.16438793092e-12
2.35217347055e-10
2.00226189254e-12
2.34188889739e-10
1.87529869943e-12
2.33216655417e-10
1.78952374374e-12
2.32280678787e-10
1.75237988337e-12
2.31360321776e-10
1.77215396594e-12
2.30436728008e-10
1.85599061666e-12
2.29498166854e-10
2.00422450923e-12
2.28548652688e-10
2.19525118526e-12
2.349265064e-12
9.71747420412e-10
1.55704321742e-10
9.8659795227e-10
2.91548507304e-10
9.67985714509e-10
3.1886036105e-10
9.27529358252e-10
2.98714028861e-10
8.7708703028e-10
2.63281092387e-10
8.24185762917e-10
2.26051775053e-10
7.72980606252e-10
1.91957434512e-10
7.25509423015e-10
1.62382860953e-10
6.82589926923e-10
1.37318880769e-10
6.44376281747e-10
1.16269323069e-10
6.10684846709e-10
9.86234088454e-11
5.81177942922e-10
8.37996811736e-11
5.55464140992e-10
7.1293162553e-11
5.33150759283e-10
6.06828563522e-11
5.13869571676e-10
5.16243436021e-11
4.97287822219e-10
4.38380133619e-11
4.8311141284e-10
3.70971952989e-11
4.71084110105e-10
3.12177209072e-11
4.60984892523e-10
2.60492755893e-11
4.52624584504e-10
2.14684438523e-11
4.45842375396e-10
1.73731985828e-11
4.40502518564e-10
1.36785636615e-11
4.36491338905e-10
1.03132065721e-11
4.3371458883e-10
7.21675919643e-12
4.32095146639e-10
4.33770617218e-12
4.31571029563e-10
1.63171604368e-12
4.32093684097e-10
-9.39680247805e-13
4.33626511413e-10
-3.41013167111e-12
4.36143589592e-10
-5.8092884125e-12
4.39628556143e-10
-8.16344838079e-12
4.44073610844e-10
-1.04960468831e-11
4.49478602668e-10
-1.28280104708e-11
4.55850164129e-10
-1.51779873277e-11
4.63200855917e-10
-1.75624596827e-11
4.71548282435e-10
-1.9995738299e-11
4.80914136738e-10
-2.2489834506e-11
4.91323129644e-10
-2.50542017213e-11
5.02801754827e-10
-2.76953359567e-11
5.15376838016e-10
-3.04162241825e-11
5.29073816972e-10
-3.32156311703e-11
5.43914698756e-10
-3.60872209561e-11
5.59915645863e-10
-3.90185195162e-11
5.77084152929e-10
-4.19897425338e-11
5.95415795852e-10
-4.49725374924e-11
6.14890565836e-10
-4.79287239135e-11
6.35468846908e-10
-5.08091583704e-11
6.57087156054e-10
-5.35528988489e-11
6.79653841677e-10
-5.60868883294e-11
7.0304502119e-10
-5.83264083308e-11
7.27101124411e-10
-6.01765531942e-11
7.51624477155e-10
-6.15349290572e-11
7.76378391666e-10
-6.22956774394e-11
8.01088205347e-10
-6.2354767397e-11
8.25444619439e-10
-6.1616317135e-11
8.49109536983e-10
-5.99995370238e-11
8.71724408427e-10
-5.74457686622e-11
8.92920886178e-10
-5.39250385054e-11
9.12333383157e-10
-4.94415181218e-11
9.29612914136e-10
-4.4037240282e-11
9.44441361008e-10
-3.77933569616e-11
9.56545054491e-10
-3.08282300118e-11
9.65706383608e-10
-2.32918776566e-11
9.71772159118e-10
-1.53568884415e-11
9.74657796024e-10
-7.20680103088e-12
9.74347042765e-10
9.76202893159e-13
9.70887780876e-10
9.02211896164e-12
9.64385051113e-10
1.67806900332e-11
9.54992678949e-10
2.4125123245e-11
9.42904710244e-10
3.09523833817e-11
9.28347481419e-10
3.71811314903e-11
9.11572655558e-10
4.27487125921e-11
8.92851129524e-10
4.76084273971e-11
8.72467463167e-10
5.17278404767e-11
8.50714432974e-10
5.50883010172e-11
8.27887419816e-10
5.7685385874e-11
8.04278532095e-10
5.95297130282e-11
7.80170572909e-10
6.06475077137e-11
7.55831138119e-10
6.10803923945e-11
7.3150723924e-10
6.08840770327e-11
7.07420859057e-10
6.01259009169e-11
6.83765764317e-10
5.88814505024e-11
6.60705749595e-10
5.72306735818e-11
6.38374311124e-10
5.52539805902e-11
6.16875596719e-10
5.30287702413e-11
5.96286373067e-10
5.0626679278e-11
5.76658706597e-10
4.81116911952e-11
5.58023057634e-10
4.55390924733e-11
5.40391527158e-10
4.29551633453e-11
5.23761050797e-10
4.03974379285e-11
5.08116395335e-10
3.78953577911e-11
4.93432866727e-10
3.54711593609e-11
4.79678684197e-10
3.31408661061e-11
4.66817007737e-10
3.09152904691e-11
4.54807630504e-10
2.88009822973e-11
4.43608361215e-10
2.68010864337e-11
4.33176130453e-10
2.49160918788e-11
4.23467856849e-10
2.31444684709e-11
4.14441109785e-10
2.14831959014e-11
4.06054602077e-10
1.99281947754e-11
3.98268543601e-10
1.84746719298e-11
3.91044882045e-10
1.71173927243e-11
3.84347453935e-10
1.58508927092e-11
3.78142064387e-10
1.46696399249e-11
3.72396511511e-10
1.3568157933e-11
3.67080567369e-10
1.25411182362e-11
3.62165925631e-10
1.15834096252e-11
3.57626122785e-10
1.06901907869e-11
3.5343643866e-10
9.85693173578e-12
3.49573779351e-10
9.07944881103e-12
3.46016545033e-10
8.35393760858e-12
3.42744482937e-10
7.67700777553e-12
3.39738525575e-10
7.0457235649e-12
3.36980612507e-10
6.45765388466e-12
3.34453494351e-10
5.91093571467e-12
3.3214051674e-10
5.40435457017e-12
3.30025383747e-10
4.93744543153e-12
3.28091901637e-10
4.51061626457e-12
3.26323709617e-10
4.12529356091e-12
3.2470401244e-10
3.78408300939e-12
3.23215346891e-10
3.49092562146e-12
3.21839441021e-10
3.25120307725e-12
3.20557271442e-10
3.07169224449e-12
3.19349493315e-10
2.96015736515e-12
3.18197512342e-10
2.92413472778e-12
3.17085540964e-10
2.96796218422e-12
3.16003713159e-10
3.08605283846e-12
3.14950346374e-10
3.24861863869e-12
3.3767180134e-12
9.63928477645e-10
1.29275844242e-10
9.87633393042e-10
2.67843591483e-10
9.89640363827e-10
3.16853389564e-10
9.72035719516e-10
3.1631867231e-10
9.4176521057e-10
2.93551600283e-10
9.04874472428e-10
2.62942512056e-10
8.65557653857e-10
2.31274251904e-10
8.26461503359e-10
2.01479010247e-10
7.89141978603e-10
1.74638404287e-10
7.54437885795e-10
1.50973414601e-10
7.22735510091e-10
1.30325783223e-10
6.94145443009e-10
1.12389746881e-10
6.68617129869e-10
9.68214742561e-11
6.46011525553e-10
8.32884591708e-11
6.26146335444e-10
7.14895321399e-11
6.08823615151e-10
6.11607320109e-11
5.93846156522e-10
5.20746521977e-11
5.81026822837e-10
4.40370527773e-11
5.70193502268e-10
3.6882594244e-11
5.61191378693e-10
3.04705654133e-11
5.53883594253e-10
2.46809808948e-11
5.48150978662e-10
1.9411177012e-11
5.43891265299e-10
1.45729175656e-11
5.41018052323e-10
1.00899696775e-11
5.3945966387e-10
5.8960919912e-12
5.39158001339e-10
1.9333758075e-12
5.40067433174e-10
-1.84911499338e-12
5.42153741035e-10
-5.49644257419e-12
5.45393132914e-10
-9.04868346827e-12
5.49771316065e-10
-1.25416348227e-11
5.5528261222e-10
-1.60073464367e-11
5.61929095335e-10
-1.94744970593e-11
5.6971972652e-10
-2.29686220431e-11
5.78669456543e-10
-2.65121932415e-11
5.88798261528e-10
-3.0124546791e-11
6.0013007337e-10
-3.38216497582e-11
6.1269156149e-10
-3.7615693101e-11
6.26510718633e-10
-4.15144961205e-11
6.41615199387e-10
-4.55207076478e-11
6.58030358307e-10
-4.96307923866e-11
6.75776934539e-10
-5.3833798986e-11
6.94868334923e-10
-5.81099210847e-11
7.15307478192e-10
-6.24288862848e-11
7.37083183487e-10
-6.67482424499e-11
7.60166118328e-10
-7.10116575131e-11
7.84504369216e-10
-7.51474070068e-11
8.10018762579e-10
-7.90672888798e-11
8.36598146478e-10
-8.26662677302e-11
8.64094938227e-10
-8.58231943734e-11
8.92321340886e-10
-8.84029488861e-11
9.21046712477e-10
-9.02602924305e-11
9.49996613259e-10
-9.12455687645e-11
9.78854032035e-10
-9.12121755746e-11
1.00726318992e-09
-9.00254634037e-11
1.03483614331e-09
-8.75724780178e-11
1.06116218827e-09
-8.37718007265e-11
1.08581984169e-09
-7.85826789477e-11
1.10839096228e-09
-7.20126261318e-11
1.12847635699e-09
-6.41226233886e-11
1.14571195981e-09
-5.5028949813e-11
1.15978436297e-09
-4.49006255357e-11
1.17044420867e-09
-3.39517186883e-11
1.17751589247e-09
-2.24285711177e-11
1.18090238758e-09
-1.05932988681e-11
1.18058481698e-09
1.29376683308e-12
1.1766174246e-09
1.29895010175e-11
1.16911938885e-09
2.42787122533e-11
1.15826515668e-09
3.49793393243e-11
1.14427473299e-09
4.49427890672e-11
1.12740485195e-09
5.40509932346e-11
1.10794134727e-09
6.22121971988e-11
1.08619252714e-09
6.93572271649e-11
1.06248307936e-09
7.54372679672e-11
1.03714801147e-09
8.04233491057e-11
1.01052629013e-09
8.43070881771e-11
9.82954085061e-10
8.71019001342e-11
9.54757767615e-10
8.88438084459e-11
9.26247021405e-10
8.95911233031e-11
8.97708545811e-10
8.94225387943e-11
8.69400844513e-10
8.84335898883e-11
8.41550483977e-10
8.67318001689e-11
8.14350019271e-10
8.44311288273e-11
7.87957572403e-10
8.16464192912e-11
7.6249786923e-10
7.84884664437e-11
7.38064425249e-10
7.50601173343e-11
7.14722526948e-10
7.14535844993e-11
6.92512668327e-10
6.77489468706e-11
6.71454153055e-10
6.40136750516e-11
6.51548638625e-10
6.0302949306e-11
6.32783467002e-10
5.66605267784e-11
6.15134685266e-10
5.31199387591e-11
5.98569708026e-10
4.97058412355e-11
5.83049608054e-10
4.64353884659e-11
5.68531046254e-10
4.33195422149e-11
5.54967866577e-10
4.03642642538e-11
5.42312390268e-10
3.75715663395e-11
5.30516446544e-10
3.49404103062e-11
5.1953217744e-10
3.24674630791e-11
5.09312651854e-10
3.01477183622e-11
4.99812321288e-10
2.79750004353e-11
4.90987345332e-10
2.59423665362e-11
4.82795811696e-10
2.4042424135e-11
4.75197871201e-10
2.22675781246e-11
4.68155805236e-10
2.06102215404e-11
4.61634039417e-10
1.90628816203e-11
4.55599115001e-10
1.76183315519e-11
4.50019626556e-10
1.62696766755e-11
4.44866132876e-10
1.50104228204e-11
4.40111045727e-10
1.38345333132e-11
4.35728500114e-10
1.27364805542e-11
4.31694207862e-10
1.1711297331e-11
4.27985295995e-10
1.07546327409e-11
4.24580130105e-10
9.86281708481e-12
4.2145812335e-10
9.03293982139e-12
4.18599531458e-10
8.26294385664e-12
4.15985236077e-10
7.5517382993e-12
4.13596520782e-10
6.89932915022e-12
4.1141484943e-10
6.30696266761e-12
4.09421663587e-10
5.77726680283e-12
4.07598228417e-10
5.31435902015e-12
4.05925573474e-10
4.92385657963e-12
4.04384599283e-10
4.61266542857e-12
4.02956445699e-10
4.38831042245e-12
4.01623225193e-10
4.25735522973e-12
4.00369124119e-10
4.22206371353e-12
3.99181367026e-10
4.27381063314e-12
3.9804869523e-10
4.3812911734e-12
4.47389329758e-12
9.57535068405e-10
1.09240775956e-10
9.82494505918e-10
2.42884153334e-10
9.94922918454e-10
3.04424976304e-10
9.9208048605e-10
3.19161103478e-10
9.77117424232e-10
3.08514660548e-10
9.54138937806e-10
2.85920996812e-10
9.26599482692e-10
2.58813705313e-10
8.97034397998e-10
2.31044093217e-10
8.67183177373e-10
2.04489623162e-10
8.38182541102e-10
1.79974049087e-10
8.10738513983e-10
1.57769808511e-10
7.85259469414e-10
1.37868789565e-10
7.61953202965e-10
1.20127738757e-10
7.40895701268e-10
1.04345958854e-10
7.2207898879e-10
9.03062425268e-11
7.05443977749e-10
7.77957408825e-11
6.90902754763e-10
6.66158729239e-11
6.78353510985e-10
5.65862942035e-11
6.67690391355e-10
4.75457114186e-11
6.58809859338e-10
3.93510948668e-11
6.51614688032e-10
3.18761495169e-11
6.4601634641e-10
2.50095158271e-11
6.41936309869e-10
1.86529511632e-11
6.39306657665e-10
1.27196187987e-11
6.38070203777e-10
7.13254264638e-12
6.38180327326e-10
1.82324887488e-12
6.39600612723e-10
-3.26940393226e-12
6.42304364613e-10
-8.20019815859e-12
6.46274052098e-10
-1.30183748033e-11
6.51500699311e-10
-1.77682860256e-11
6.57983229023e-10
-2.24898802707e-11
6.657277572e-10
-2.72190294641e-11
6.74746826589e-10
-3.19876957423e-11
6.85058559811e-10
-3.68239308136e-11
6.96685705408e-10
-4.17516967363e-11
7.09654544157e-10
-4.67904927894e-11
7.23993616901e-10
-5.19547699983e-11
7.39732229946e-10
-5.72531131037e-11
7.56898689341e-10
-6.26871706828e-11
7.7551821251e-10
-6.82503187893e-11
7.95610464952e-10
-7.39260541564e-11
8.17186673479e-10
-7.96861317119e-11
8.40246276884e-10
-8.54884910552e-11
8.64773093892e-10
-9.12750599626e-11
8.9073101907e-10
-9.69695822306e-11
9.18059305021e-10
-1.02475691416e-10
9.46667555833e-10
-1.07675536979e-10
9.76430644921e-10
-1.12429352838e-10
1.00718387594e-09
-1.16576420081e-10
1.03871881903e-09
-1.19937885277e-10
1.07078035484e-09
-1.22321820133e-10
1.10306551681e-09
-1.23530721236e-10
1.13522470476e-09
-1.23371352718e-10
1.16686572907e-09
-1.21666475716e-10
1.19756094045e-09
-1.18267676454e-10
1.22685744733e-09
-1.13068294023e-10
1.25429017635e-09
-1.06015394165e-10
1.27939732351e-09
-9.7119759801e-11
1.30173754055e-09
-8.6462827874e-11
1.32090792754e-09
-7.41993258979e-11
1.33656151729e-09
-6.05542067843e-11
1.34842252667e-09
-4.58127227356e-11
1.35629746214e-09
-3.03035050581e-11
1.3600805227e-09
-1.4376362074e-11
1.35975277709e-09
1.62150553541e-12
1.35537595834e-09
1.73663088901e-11
1.34708273939e-09
3.25719169449e-11
1.33506558352e-09
4.69964783003e-11
1.31956588346e-09
6.0442470341e-11
1.30086442111e-09
7.27524355771e-11
1.2792734081e-09
8.38031895268e-11
1.2551297396e-09
9.35008747482e-11
1.22878878523e-09
1.01778201609e-10
1.20061807219e-09
1.08594041966e-10
1.17099045838e-09
1.13934682694e-10
1.14027670024e-09
1.17815640134e-10
1.10883761505e-09
1.20282876854e-10
1.07701628164e-09
1.21412441438e-10
1.04513087251e-09
1.21307934218e-10
1.01346871899e-09
1.20095731275e-10
9.8228207198e-10
1.17918436569e-10
9.51785781869e-10
1.14927409792e-10
9.22156860139e-10
1.11275333219e-10
8.93535673589e-10
1.07109646423e-10
8.6602839631e-10
1.02567389123e-10
8.39710307654e-10
9.77716686137e-11
8.14629553368e-10
9.28296974088e-11
7.90811054684e-10
8.78321706503e-11
7.68260330128e-10
8.28536712957e-11
7.46967071824e-10
7.79537829254e-11
7.26908382227e-10
7.31786264902e-11
7.0805162708e-10
6.85625947267e-11
6.90356895341e-10
6.41301186684e-11
6.73779080535e-10
5.98973555531e-11
6.58269611719e-10
5.58737316098e-11
6.43777870005e-10
5.20633065731e-11
6.3025232894e-10
4.84659498337e-11
6.17641457045e-10
4.507833337e-11
6.058944183e-10
4.1894755414e-11
5.9496160342e-10
3.89078135362e-11
5.84795020742e-10
3.61089473373e-11
5.75348572031e-10
3.34888708806e-11
5.66578234517e-10
3.10379135766e-11
5.58442167341e-10
2.87462865725e-11
5.50900757171e-10
2.66042895601e-11
5.43916615308e-10
2.46024711134e-11
5.37454535878e-10
2.27317537305e-11
5.31481422925e-10
2.09835333433e-11
5.25966192153e-10
1.9349761598e-11
5.20879651902e-10
1.78230182826e-11
5.16194366424e-10
1.63965802526e-11
5.1188450398e-10
1.50644926208e-11
5.0792567137e-10
1.38216471274e-11
5.04294736714e-10
1.26638719391e-11
5.00969642282e-10
1.15880357907e-11
4.97929210606e-10
1.0592167556e-11
4.951529487e-10
9.67558873743e-12
4.92620858789e-10
8.83905041091e-12
4.90313268375e-10
8.08485523937e-12
4.88210699333e-10
7.41692634966e-12
4.86293803169e-10
6.84075135737e-12
4.84543396317e-10
6.36307131739e-12
4.82940624575e-10
5.99108168575e-12
4.81467241942e-10
5.73073792036e-12
4.80105819507e-10
5.58348670245e-12
4.78839182729e-10
5.54044821254e-12
4.77647195084e-10
5.57327960253e-12
5.62325315772e-12
9.52915068555e-10
9.38257068515e-11
9.76428988511e-10
2.19370232097e-10
9.9368955835e-10
2.87164404951e-10
9.99987474981e-10
3.12863185182e-10
9.95954703537e-10
3.12547430142e-10
9.840028004e-10
2.97872898018e-10
9.6667474424e-10
2.76141759524e-10
9.46102906972e-10
2.5161592853e-10
9.23917495242e-10
2.26675032919e-10
9.013037091e-10
2.02587833225e-10
8.7909269469e-10
1.79980820874e-10
8.5784770282e-10
1.59113779335e-10
8.37935089926e-10
1.4004034949e-10
8.1957952147e-10
1.22701525079e-10
8.02905645091e-10
1.06980116599e-10
7.87969007251e-10
9.27323763341e-11
7.74778717717e-10
7.98061599798e-11
7.63313906377e-10
6.80511029687e-11
7.53535566888e-10
5.73240482283e-11
7.45395000812e-10
4.74916581499e-11
7.38839772487e-10
3.84313749282e-11
7.33817850682e-10
3.00314345868e-11
7.30280435459e-10
2.21903632028e-11
7.28183835413e-10
1.48162155137e-11
7.27490661194e-10
7.82571337943e-12
7.28170527197e-10
1.14337922358e-12
7.3020039804e-10
-5.29927858776e-12
7.33564671364e-10
-1.15644754621e-11
7.38255078146e-10
-1.77087857291e-11
7.44270430776e-10
-2.37836429572e-11
7.51616245504e-10
-2.98356994445e-11
7.60304250782e-10
-3.59070393139e-11
7.70351781128e-10
-4.20352307567e-11
7.81781046375e-10
-4.82532007901e-11
7.9461825764e-10
-5.45889127419e-11
8.08892583652e-10
-6.10648234963e-11
8.24634903997e-10
-6.76970949191e-11
8.41876319323e-10
-7.44945328047e-11
8.6064637284e-10
-8.14572282776e-11
8.80970933014e-10
-8.85748826387e-11
9.02869685049e-10
-9.58248093488e-11
9.26353180036e-10
-1.03169629216e-10
9.51419397477e-10
-1.10554710247e-10
9.78049792412e-10
-1.17905455756e-10
1.00620482627e-09
-1.25124615934e-10
1.03581902594e-09
-1.32089889794e-10
1.06679568299e-09
-1.38652191497e-10