/*--------------------------------*- C++ -*----------------------------------*\
  =========                 |
  \\      /  F ield         | OpenFOAM: The Open Source CFD Toolbox
   \\    /   O peration     | Website:  https://openfoam.org
    \\  /    A nd           | Version:  7
     \\/     M anipulation  |
\*---------------------------------------------------------------------------*/
FoamFile
{
    version     2.0;
    format      ascii;
    class       volVectorField;
    location    "1980";
    object      U;
}
// * * * * * * * * * * * * * * * * * * * * * * * * * * * * * * * * * * * * * //

dimensions      [0 1 -1 0 0 0 0];

internalField   nonuniform List<vector> 
8192
(
(0.00104346933282 0.000156530667176 0)
(0.000759347004437 0.000127591662441 0)
(0.000549361597533 8.23937466974e-05 0)
(0.000414111755339 5.28560972778e-05 0)
(0.000326291467924 3.49641915315e-05 0)
(0.000267250967501 2.40763100463e-05 0)
(0.000225926765394 1.72478931037e-05 0)
(0.00019588309023 1.27957830574e-05 0)
(0.00017331350645 9.77380169158e-06 0)
(0.000155896575811 7.64312989252e-06 0)
(0.000142164608071 6.08883876913e-06 0)
(0.000131154901146 4.92086905334e-06 0)
(0.00012221350033 4.02053263103e-06 0)
(0.000114881820145 3.31114839197e-06 0)
(0.000108829129683 2.74154287035e-06 0)
(0.000103811065145 2.27652242717e-06 0)
(9.96433340726e-05 1.89120935847e-06 0)
(9.61845499745e-05 1.5675754025e-06 0)
(9.33247159873e-05 1.29225919215e-06 0)
(9.09773026488e-05 1.05515469572e-06 0)
(8.90736734257e-05 8.48475014743e-07 0)
(8.75590820023e-05 6.66116832531e-07 0)
(8.63897460068e-05 5.03219521256e-07 0)
(8.55306736003e-05 3.55853178233e-07 0)
(8.49540268816e-05 2.2079376854e-07 0)
(8.4637874917e-05 9.53583628118e-08 0)
(8.45652341021e-05 -2.27174381955e-08 0)
(8.47233232738e-05 -1.35371672833e-07 0)
(8.51029805866e-05 -2.4428561847e-07 0)
(8.56982036668e-05 -3.50937465201e-07 0)
(8.65057846091e-05 -4.56643488253e-07 0)
(8.75250167278e-05 -5.62588626827e-07 0)
(8.8757453769e-05 -6.69848369713e-07 0)
(9.02067051122e-05 -7.79402855498e-07 0)
(9.18782518023e-05 -8.92143606817e-07 0)
(9.37792684594e-05 -1.00887266973e-06 0)
(9.59184353649e-05 -1.13029365555e-06 0)
(9.83057235271e-05 -1.25699367427e-06 0)
(0.000100952133377 -1.38941503591e-06 0)
(0.00010386936523 -1.52781530992e-06 0)
(0.000107069397067 -1.67221459227e-06 0)
(0.000110563943199 -1.82232911814e-06 0)
(0.000114363766773 -1.97749148825e-06 0)
(0.000118477821087 -2.13655925863e-06 0)
(0.000122912200855 -2.29781629485e-06 0)
(0.000127668896508 -2.45887445613e-06 0)
(0.000132744363941 -2.61658735699e-06 0)
(0.000138127949545 -2.76699188814e-06 0)
(0.00014380024515 -2.90529661319e-06 0)
(0.000149731486597 -3.02593699145e-06 0)
(0.000155880147127 -3.12271497988e-06 0)
(0.000162191904642 -3.18903330049e-06 0)
(0.000168599171539 -3.21822375163e-06 0)
(0.000175021361245 -3.20395559053e-06 0)
(0.000181366025814 -3.14069822053e-06 0)
(0.000187530938878 -3.02420385605e-06 0)
(0.000193407125264 -2.85197152293e-06 0)
(0.000198882757313 -2.62364975488e-06 0)
(0.00020384774646 -2.34132917057e-06 0)
(0.000208198752293 -2.00966734919e-06 0)
(0.000211844214106 -1.63578646424e-06 0)
(0.00021470890833 -1.2289014977e-06 0)
(0.000216737498417 -7.99684477348e-07 0)
(0.00021789662476 -3.59440249807e-07 0)
(0.000218175299123 8.07647728075e-08 0)
(0.000217583675717 5.1085470931e-07 0)
(0.000216150577349 9.22237014323e-07 0)
(0.000213920334258 1.30799695379e-06 0)
(0.000210949493795 1.66283225442e-06 0)
(0.000207303833965 1.98281459407e-06 0)
(0.000203055911053 2.26509402362e-06 0)
(0.000198283154816 2.50764700153e-06 0)
(0.00019306636444 2.70912760953e-06 0)
(0.000187488386684 2.86883415577e-06 0)
(0.000181632772255 2.98676435401e-06 0)
(0.000175582281408 3.06371090526e-06 0)
(0.000169417211315 3.10134415493e-06 0)
(0.00016321361559 3.10223727418e-06 0)
(0.000157041558042 3.06980685365e-06 0)
(0.000150963574042 3.00816469778e-06 0)
(0.000145033499796 2.9218981261e-06 0)
(0.000139295779619 2.81581167192e-06 0)
(0.000133785290556 2.69466804128e-06 0)
(0.000128527652333 2.56296182208e-06 0)
(0.000123539935172 2.42474790755e-06 0)
(0.000118831647136 2.28353355366e-06 0)
(0.000114405876586 2.14223119419e-06 0)
(0.000110260478532 2.00316174557e-06 0)
(0.000106389217854 1.86809441718e-06 0)
(0.000102782810214 1.73830922377e-06 0)
(9.94298272742e-05 1.61467015124e-06 0)
(9.63174538022e-05 1.49770011782e-06 0)
(9.34320991862e-05 1.38765159028e-06 0)
(9.07598753916e-05 1.2845695337e-06 0)
(8.82869583305e-05 1.18834504319e-06 0)
(8.59998513475e-05 1.09875959967e-06 0)
(8.38855690865e-05 1.01552042928e-06 0)
(8.19317583618e-05 9.38288142578e-07 0)
(8.01267704097e-05 8.66697711816e-07 0)
(7.84596965207e-05 8.0037411613e-07 0)
(7.6920376759e-05 7.38943605994e-07 0)
(7.5499389443e-05 6.82041680954e-07 0)
(7.41880272939e-05 6.2931844053e-07 0)
(7.29782647084e-05 5.80442112833e-07 0)
(7.18627194008e-05 5.3510115356e-07 0)
(7.08346106987e-05 4.93005495681e-07 0)
(6.98877159775e-05 4.53887159563e-07 0)
(6.90163260696e-05 4.17500669552e-07 0)
(6.8215199915e-05 3.83623394525e-07 0)
(6.74795182072e-05 3.52056213834e-07 0)
(6.68048352623e-05 3.22624626556e-07 0)
(6.61870277697e-05 2.95180761981e-07 0)
(6.56222383802e-05 2.69606530941e-07 0)
(6.51068111785e-05 2.45818590465e-07 0)
(6.46372148272e-05 2.23775707437e-07 0)
(6.42099473592e-05 2.03489747204e-07 0)
(6.38214138948e-05 1.85041759508e-07 0)
(6.34677644138e-05 1.6860583865e-07 0)
(6.31446721347e-05 1.54484656035e-07 0)
(6.2847022337e-05 1.43163484718e-07 0)
(6.25684635969e-05 1.35393761585e-07 0)
(6.2300743365e-05 1.32325180265e-07 0)
(6.20327004284e-05 1.35716709336e-07 0)
(6.17487140659e-05 1.4826887077e-07 0)
(6.14263447423e-05 1.74099913171e-07 0)
(6.10331128928e-05 2.19131568559e-07 0)
(6.05241314281e-05 2.89849731657e-07 0)
(5.98623940395e-05 3.718877063e-07 0)
(0.00121018005688 0.000302881278992 0)
(0.00116034537997 0.00031519806065 0)
(0.00102701098197 0.00023810715918 0)
(0.000887640481091 0.000171763032309 0)
(0.000767049924992 0.000124468103391 0)
(0.000668712801072 9.19500253307e-05 0)
(0.000589926674056 6.94845094808e-05 0)
(0.00052686844792 5.36610703932e-05 0)
(0.000476104136363 4.22424120202e-05 0)
(0.000434901054276 3.37945345396e-05 0)
(0.000401175355452 2.73951028557e-05 0)
(0.00037335791426 2.24417551707e-05 0)
(0.000350266052283 1.85329112987e-05 0)
(0.000331001794194 1.53947098883e-05 0)
(0.000314876415024 1.28360527764e-05 0)
(0.000301355902747 1.07205909762e-05 0)
(0.000290021810626 8.94896549803e-06 0)
(0.000280543085122 7.4473302016e-06 0)
(0.000272655639578 6.15978509134e-06 0)
(0.000266147394767 5.04328793265e-06 0)
(0.000260847200424 4.06416613929e-06 0)
(0.000256616536759 3.19568139594e-06 0)
(0.000253343228622 2.41629948729e-06 0)
(0.000250936633542 1.7084408942e-06 0)
(0.000249323921583 1.05756472369e-06 0)
(0.00024844717311 4.51487648569e-07 0)
(0.000248261095454 -1.20128626778e-07 0)
(0.000248731211606 -6.66166336677e-07 0)
(0.00024983241035 -1.19434766359e-06 0)
(0.00025154777452 -1.71146340519e-06 0)
(0.000253867622618 -2.22354735121e-06 0)
(0.000256788710028 -2.73600501856e-06 0)
(0.000260313544246 -3.25370384604e-06 0)
(0.000264449773767 -3.78102864065e-06 0)
(0.000269209612833 -4.32190365238e-06 0)
(0.00027460926456 -4.87978063714e-06 0)
(0.000280668303629 -5.45759070485e-06 0)
(0.000287408976956 -6.05765641845e-06 0)
(0.000294855377246 -6.68155983541e-06 0)
(0.000303032440512 -7.32996196249e-06 0)
(0.000311964715661 -8.00237001466e-06 0)
(0.000321674853338 -8.69685117705e-06 0)
(0.000332181764343 -9.4096960991e-06 0)
(0.000343498407485 -1.01350424563e-05 0)
(0.000355629185425 -1.0864479283e-05 0)
(0.000368566957924 -1.15866661032e-05 0)
(0.000382289726862 -1.22870164787e-05 0)
(0.000396757107141 -1.29475108978e-05 0)
(0.000411906769198 -1.35467153366e-05 0)
(0.000427651115498 -1.40600839232e-05 0)
(0.000443874523122 -1.44606120108e-05 0)
(0.00046043153186 -1.47198763577e-05 0)
(0.000477146366267 -1.48094540691e-05 0)
(0.000493814139706 -1.47026590231e-05 0)
(0.000510203996638 -1.43764858477e-05 0)
(0.000526064315082 -1.38136167985e-05 0)
(0.000541129928213 -1.3004327363e-05 0)
(0.000555131143757 -1.19481118283e-05 0)
(0.00056780414383 -1.06548287084e-05 0)
(0.000578902135114 -9.14514052953e-06 0)
(0.000588206403534 -7.45002355876e-06 0)
(0.000595536258415 -5.60919921292e-06 0)
(0.000600756813218 -3.66852411957e-06 0)
(0.000603783729872 -1.67664365608e-06 0)
(0.000604584476268 3.18539358542e-07 0)
(0.000603176226613 2.27293716114e-06 0)
(0.000599621100702 4.14835537153e-06 0)
(0.000594019782846 5.91340952037e-06 0)
(0.000586504591903 7.54341563967e-06 0)
(0.000577232861118 9.01958215278e-06 0)
(0.000566381124619 1.03279431784e-05 0)
(0.000554140214368 1.14584197152e-05 0)
(0.000540711069859 1.24042442416e-05 0)
(0.000526300915392 1.31618041803e-05 0)
(0.000511119468481 1.37308108659e-05 0)
(0.000495374965309 1.41146150527e-05 0)
(0.000479269965936 1.43204681192e-05 0)
(0.000462997077881 1.43595581804e-05 0)
(0.000446734868273 1.42467169486e-05 0)
(0.000430644293836 1.39997798278e-05 0)
(0.000414865955032 1.36386658518e-05 0)
(0.000399518387908 1.31843040471e-05 0)
(0.000384697474034 1.26575542966e-05 0)
(0.00037047691174 1.20782545067e-05 0)
(0.000356909581574 1.14644834925e-05 0)
(0.000344029572742 1.08320780616e-05 0)
(0.00033185461773 1.01943975033e-05 0)
(0.000320388700431 9.56229781747e-06 0)
(0.00030962464519 8.94426281278e-06 0)
(0.000299546546151 8.34663734113e-06 0)
(0.000290131947623 7.77391439616e-06 0)
(0.000281353730188 7.229038538e-06 0)
(0.00027318169105 6.71369936927e-06 0)
(0.000265583830603 6.22859897834e-06 0)
(0.000258527371532 5.77368511742e-06 0)
(0.000251979544078 5.34834764842e-06 0)
(0.00024590817325 4.95157936683e-06 0)
(0.000240282102703 4.58210451471e-06 0)
(0.000235071486926 4.23847919082e-06 0)
(0.000230247979405 3.91916821096e-06 0)
(0.000225784840161 3.62260269041e-06 0)
(0.000221656981941 3.34722228983e-06 0)
(0.000217840970589 3.09150545911e-06 0)
(0.000214314991768 2.853990583e-06 0)
(0.00021105879343 2.63329036221e-06 0)
(0.000208053610956 2.42810144549e-06 0)
(0.000205282079911 2.2372109068e-06 0)
(0.00020272813962 2.05950100818e-06 0)
(0.000200376929246 1.89395343548e-06 0)
(0.000198214676741 1.7396542118e-06 0)
(0.000196228579718 1.59580041659e-06 0)
(0.000194406675966 1.46171004903e-06 0)
(0.000192737699952 1.33683652053e-06 0)
(0.00019121091995 1.22078974879e-06 0)
(0.000189815948567 1.11336633588e-06 0)
(0.000188542517061 1.01459230133e-06 0)
(0.000187380201088 9.24783060693e-07 0)
(0.000186318082453 8.44627347886e-07 0)
(0.000185344328497 7.75304433322e-07 0)
(0.000184445669649 7.18647856036e-07 0)
(0.000183606760538 6.77373301491e-07 0)
(0.000182809431941 6.5539119589e-07 0)
(0.00018203190769 6.58215365102e-07 0)
(0.000181248243327 6.93419239666e-07 0)
(0.000180428727366 7.70833929919e-07 0)
(0.000179543200573 9.01155891888e-07 0)
(0.000178572886462 1.08712107515e-06 0)
(0.000177534671578 1.27456899428e-06 0)
(0.00122478149857 0.000267919726065 0)
(0.00124107401174 0.000383701782837 0)
(0.0011961396409 0.000347872211081 0)
(0.0011133162805 0.00028419184552 0)
(0.00102022540833 0.000225720721303 0)
(0.000930569901477 0.000178690040505 0)
(0.000849782450329 0.000142318074532 0)
(0.000779259422304 0.000114408761428 0)
(0.000718634239766 9.28842168995e-05 0)
(0.000666883014328 7.61070389009e-05 0)
(0.000622828585494 6.28627277571e-05 0)
(0.000585351894332 5.22682641099e-05 0)
(0.000553466990054 4.36831699695e-05 0)
(0.000526335674762 3.66400258093e-05 0)
(0.000503257661506 3.07941303295e-05 0)
(0.000483652609996 2.58880780811e-05 0)
(0.000467041121372 2.17270598139e-05 0)
(0.00045302746006 1.81616231679e-05 0)
(0.000441284834145 1.50755638248e-05 0)
(0.000431543247126 1.23773410315e-05 0)
(0.000423579628941 9.99392532021e-06 0)
(0.000417209876379 7.86633793396e-06 0)
(0.000412282448424 5.94637826691e-06 0)
(0.000408673209873 4.19419470481e-06 0)
(0.000406281270302 2.57646113411e-06 0)
(0.000405025614519 1.06499393201e-06 0)
(0.000404842361725 -3.64306259224e-07 0)
(0.000405682522854 -1.73226799414e-06 0)
(0.000407510150994 -3.0570750689e-06 0)
(0.000410300801258 -4.35475273068e-06 0)
(0.000414040230022 -5.63953723165e-06 0)
(0.000418723271837 -6.92414667366e-06 0)
(0.000424352839625 -8.2199663699e-06 0)
(0.000430938997675 -9.5371556014e-06 0)
(0.000438498058403 -1.08846779979e-05 0)
(0.000447051653234 -1.22702538032e-05 0)
(0.00045662572574 -1.37002293258e-05 0)
(0.000467249391797 -1.51793564587e-05 0)
(0.000478953607661 -1.6710474083e-05 0)
(0.00049176958332 -1.82940834102e-05 0)
(0.000505726876593 -1.99278121761e-05 0)
(0.000520851105017 -2.16057684957e-05 0)
(0.000537161219738 -2.3317795869e-05 0)
(0.000554666301579 -2.50486568103e-05 0)
(0.000573361867132 -2.67771951672e-05 0)
(0.000593225715641 -2.84755554176e-05 0)
(0.000614213407522 -3.01085695013e-05 0)
(0.000636253543037 -3.16334524265e-05 0)
(0.000659243100798 -3.29999695816e-05 0)
(0.000683043191736 -3.41512400824e-05 0)
(0.000707475669577 -3.5025311774e-05 0)
(0.000732321094281 -3.5557577949e-05 0)
(0.000757318549709 -3.56840079569e-05 0)
(0.000782167756555 -3.53450491964e-05 0)
(0.000806533793781 -3.448995231e-05 0)
(0.000830054558673 -3.3081195593e-05 0)
(0.000852350877765 -3.10986431067e-05 0)
(0.000873038945916 -2.85430436445e-05 0)
(0.000891744522991 -2.54384408167e-05 0)
(0.00090811805394 -2.18330218603e-05 0)
(0.000921849611214 -1.77979451673e-05 0)
(0.000932682345457 -1.34238515672e-05 0)
(0.000940423077582 -8.8151524689e-06 0)
(0.000944948888557 -4.0827465788e-06 0)
(0.00094620910388 6.63666676816e-07 0)
(0.000944222821892 5.32231761036e-06 0)
(0.0009390728681 9.80402159586e-06 0)
(0.00093089750477 1.40343835747e-05 0)
(0.000919881269674 1.79538203566e-05 0)
(0.000906246048126 2.15160777139e-05 0)
(0.00089024302725 2.46861496537e-05 0)
(0.00087214569068 2.74384028096e-05 0)
(0.000852243637134 2.97554012694e-05 0)
(0.000830836824954 3.16275562797e-05 0)
(0.000808229856974 3.30534175103e-05 0)
(0.000784726070449 3.40402441499e-05 0)
(0.000760621411691 3.4604446051e-05 0)
(0.000736198288327 3.47715439201e-05 0)
(0.000711719751747 3.45754333373e-05 0)
(0.000687424432759 3.40569166724e-05 0)
(0.00066352262152 3.32616427619e-05 0)
(0.000640193762822 3.22377204952e-05 0)
(0.000617585466897 3.10333188343e-05 0)
(0.000595813960476 2.96945332746e-05 0)
(0.000574965761704 2.82637113652e-05 0)
(0.000555100277304 2.67783239088e-05 0)
(0.000536252993685 2.52703732263e-05 0)
(0.000518438954385 2.37662637444e-05 0)
(0.000501656267261 2.22870260903e-05 0)
(0.000485889449075 2.0848779614e-05 0)
(0.000471112479536 1.94633297241e-05 0)
(0.000457291493136 1.81388175391e-05 0)
(0.000444387081612 1.68803622694e-05 0)
(0.000432356211811 1.56906581295e-05 0)
(0.000421153784604 1.45705044545e-05 0)
(0.000410733872316 1.35192605469e-05 0)
(0.000401050677244 1.25352250426e-05 0)
(0.00039205925438 1.16159450272e-05 0)
(0.00038371603902 1.07584626327e-05 0)
(0.000375979215961 9.95950816067e-06 0)
(0.000368808962191 9.21564852907e-06 0)
(0.000362167590093 8.52339948027e-06 0)
(0.000356019613516 7.87930883263e-06 0)
(0.000350331754784 7.28001731063e-06 0)
(0.000345072906942 6.72230227526e-06 0)
(0.000340214062251 6.20310907115e-06 0)
(0.00033572821513 5.71957373916e-06 0)
(0.00033159024528 5.26904053917e-06 0)
(0.000327776784646 4.84907707907e-06 0)
(0.00032426606998 4.45748986964e-06 0)
(0.000321037781076 4.09234280499e-06 0)
(0.000318072863197 3.75198142935e-06 0)
(0.000315353330664 3.4350658806e-06 0)
(0.000312862047215 3.14061613422e-06 0)
(0.000310582477405 2.86807358995e-06 0)
(0.000308498402463 2.6173841614e-06 0)
(0.000306593593859 2.38910873737e-06 0)
(0.000304851439549 2.18456796533e-06 0)
(0.000303254523118 2.00602805307e-06 0)
(0.000301784168706 1.85693198254e-06 0)
(0.000300419991548 1.74217070754e-06 0)
(0.0002991395489 1.66836121162e-06 0)
(0.00029791829389 1.64402178112e-06 0)
(0.00029673024036 1.6793289071e-06 0)
(0.000295550111862 1.78456801141e-06 0)
(0.000294358332711 1.96472800924e-06 0)
(0.000293149964507 2.20223210205e-06 0)
(0.000291941427358 2.40621092894e-06 0)
(0.00122191834906 0.000221219880163 0)
(0.00125334103852 0.000382686429303 0)
(0.00125093354674 0.00039622942967 0)
(0.00121312964657 0.00035646188896 0)
(0.00115495448866 0.000304716708572 0)
(0.00108881458765 0.000255489461255 0)
(0.00102218647627 0.000212934216243 0)
(0.000959033618731 0.000177468505102 0)
(0.00090118358396 0.000148299690263 0)
(0.000849258373549 0.000124368001018 0)
(0.000803239122211 0.000104675445332 0)
(0.000762792185363 8.83791739436e-05 0)
(0.000727450933704 7.47984153358e-05 0)
(0.000696713536176 6.33934923784e-05 0)
(0.000670093011813 5.37392003287e-05 0)
(0.000647140732093 4.55003380837e-05 0)
(0.000627455510438 3.84115086657e-05 0)
(0.000610685134685 3.22612097494e-05 0)
(0.000596524161682 2.68795743028e-05 0)
(0.000584710065297 2.212901186e-05 0)
(0.000575018854336 1.78970812887e-05 0)
(0.000567260732134 1.40910541139e-05 0)
(0.00056127606878 1.06337505071e-05 0)
(0.00055693179375 7.46033287456e-06 0)
(0.0005541182307 4.51582212916e-06 0)
(0.000552746352769 1.7531629142e-06 0)
(0.000552745416742 -8.68290429237e-07 0)
(0.000554060925126 -3.3839575998e-06 0)
(0.000556652864643 -5.82495760778e-06 0)
(0.00056049417327 -8.2188337544e-06 0)
(0.000565569386871 -1.05901033739e-05 0)
(0.000571873416648 -1.29606569833e-05 0)
(0.00057941041075 -1.53500227833e-05 0)
(0.000588192652829 -1.77755040132e-05 0)
(0.000598239448545 -2.02521904637e-05 0)
(0.000609575948271 -2.27928399197e-05 0)
(0.000622231850485 -2.54076213781e-05 0)
(0.000636239926061 -2.81037087268e-05 0)
(0.000651634299419 -3.08847127603e-05 0)
(0.000668448419192 -3.37499407066e-05 0)
(0.000686712650066 -3.66934781657e-05 0)
(0.000706451420556 -3.97030989271e-05 0)
(0.000727679871227 -4.27590264798e-05 0)
(0.000750399967219 -4.58325976078e-05 0)
(0.00077459607148 -4.88849154837e-05 0)
(0.000800230024156 -5.18656251276e-05 0)
(0.000827235841895 -5.47119956429e-05 0)
(0.000855514238547 -5.73485419477e-05 0)
(0.000884927272235 -5.96874521899e-05 0)
(0.000915293533185 -6.16300871949e-05 0)
(0.000946384385002 -6.30697693397e-05 0)
(0.000977921836046 -6.38959684529e-05 0)
(0.00100957862209 -6.39998287736e-05 0)
(0.00104098100786 -6.32807887302e-05 0)
(0.00107171466011 -6.1653868378e-05 0)
(0.00110133372506 -5.90570745944e-05 0)
(0.00112937298855 -5.54583119101e-05 0)
(0.00115536273237 -5.08611531691e-05 0)
(0.00117884563027 -4.53087750594e-05 0)
(0.00119939473609 -3.88852971353e-05 0)
(0.00121663130592 -3.17137752804e-05 0)
(0.00123024092038 -2.39503555522e-05 0)
(0.00123998626734 -1.57747214293e-05 0)
(0.00124571517129 -7.37789583229e-06 0)
(0.00124736309683 1.0506619427e-06 0)
(0.00124495028713 9.33439129398e-06 0)
(0.00123857461247 1.73175448599e-05 0)
(0.00122840174724 2.48690498849e-05 0)
(0.00121465432908 3.18827623356e-05 0)
(0.00119760140266 3.8275234309e-05 0)
(0.00117754888767 4.39824765578e-05 0)
(0.00115483122245 4.89570236301e-05 0)
(0.00112980389932 5.31661025424e-05 0)
(0.00110283641353 5.65910989062e-05 0)
(0.00107430518579 5.92280179578e-05 0)
(0.00104458620922 6.10883563406e-05 0)
(0.0010140474272 6.21997270234e-05 0)
(0.000983041095058 6.26056741463e-05 0)
(0.00095189656151 6.23643325432e-05 0)
(0.00092091398291 6.15458781292e-05 0)
(0.00089035943896 6.02290033577e-05 0)
(0.000860461768904 5.84968592124e-05 0)
(0.00083141123886 5.64329801567e-05 0)
(0.000803359941019 5.41176535443e-05 0)
(0.000776423660663 5.16250505181e-05 0)
(0.000750684850985 4.90212617658e-05 0)
(0.000726196329108 4.63632261001e-05 0)
(0.000702985334267 4.36984322135e-05 0)
(0.000681057649891 4.10652179689e-05 0)
(0.000660401565524 3.8493480483e-05 0)
(0.00064099152772 3.60056274702e-05 0)
(0.000622791392591 3.36176334268e-05 0)
(0.000605757242838 3.13401003906e-05 0)
(0.000589839768475 2.91792573551e-05 0)
(0.0005749862347 2.71378596978e-05 0)
(0.000561142074668 2.52159713005e-05 0)
(0.000548252151873 2.34116259265e-05 0)
(0.000536261738645 2.1721374032e-05 0)
(0.000525117255592 2.014072581e-05 0)
(0.000514766813234 1.86645041009e-05 0)
(0.000505160592414 1.72871207882e-05 0)
(0.000496251095027 1.60027902053e-05 0)
(0.000487993291726 1.4805691366e-05 0)
(0.000480344688574 1.36900899176e-05 0)
(0.000473265330483 1.26504287378e-05 0)
(0.00046671775552 1.16813952815e-05 0)
(0.000460666910986 1.07779720956e-05 0)
(0.000455080039325 9.93547651145e-06 0)
(0.000449926539527 9.14959427716e-06 0)
(0.000445177807606 8.41641194117e-06 0)
(0.000440807057901 7.73245199129e-06 0)
(0.000436789125447 7.09471522384e-06 0)
(0.000433100248372 6.50073437719e-06 0)
(0.000429717828389 5.94864383329e-06 0)
(0.000426620167098 5.43726988641e-06 0)
(0.000423786176312 4.96624668346e-06 0)
(0.000421195062646 4.53616184551e-06 0)
(0.000418825991203 4.14873433508e-06 0)
(0.000416657742117 3.8070214018e-06 0)
(0.000414668389972 3.51564000896e-06 0)
(0.000412835064263 3.28096113707e-06 0)
(0.000411133895976 3.11117823247e-06 0)
(0.000409540329444 3.01602383905e-06 0)
(0.000408030083621 3.00562476398e-06 0)
(0.000406581154116 3.08732979256e-06 0)
(0.000405177122638 3.25777750252e-06 0)
(0.000403810598101 3.48407668732e-06 0)
(0.000402478873804 3.66462916953e-06 0)
(0.00121691422569 0.000182387306229 0)
(0.00124899959724 0.000358010943224 0)
(0.0012654552044 0.000406856800393 0)
(0.00125547269334 0.000393620928749 0)
(0.00122483259525 0.000356372923309 0)
(0.00118184939712 0.00031295634375 0)
(0.00113307656082 0.000270868279306 0)
(0.00108289226062 0.000232871597568 0)
(0.00103398622846 0.000199652662435 0)
(0.000987891113214 0.000171035352109 0)
(0.000945390973367 0.000146527482924 0)
(0.000906803809984 0.000125561233955 0)
(0.000872168046642 0.000107593367558 0)
(0.00084136233947 9.21416419347e-05 0)
(0.000814181031037 7.87928804749e-05 0)
(0.00079038076838 6.71991970386e-05 0)
(0.000769708653871 5.70699823978e-05 0)
(0.00075191870679 4.81630551581e-05 0)
(0.000736781008067 4.02763966933e-05 0)
(0.000724086323815 3.324096593e-05 0)
(0.000713647982686 2.69146748657e-05 0)
(0.000705302126665 2.1177434031e-05 0)
(0.000698907036135 1.59271194482e-05 0)
(0.000694341963278 1.10763064793e-05 0)
(0.000691505738363 6.54963082456e-06 0)
(0.000690315305733 2.28165878475e-06 0)
(0.000690704278088 -1.78482895436e-06 0)
(0.000692621551494 -5.70020751699e-06 0)
(0.000696029999328 -9.50910200369e-06 0)
(0.000700905247347 -1.32512532503e-05 0)
(0.000707234514103 -1.69621717247e-05 0)
(0.000715015492835 -2.06736048193e-05 0)
(0.000724255245987 -2.44138299973e-05 0)
(0.00073496907716 -2.82077778715e-05 0)
(0.000747179339565 -3.20769824576e-05 0)
(0.000760914134334 -3.60393499291e-05 0)
(0.00077620584631 -4.01087326862e-05 0)
(0.000793089459279 -4.42942925294e-05 0)
(0.000811600587533 -4.85996363714e-05 0)
(0.000831773156924 -5.30217110764e-05 0)
(0.000853636667421 -5.7549452763e-05 0)
(0.000877212972455 -6.21622019846e-05 0)
(0.000902512520393 -6.68279224439e-05 0)
(0.000929530023475 -7.15012991631e-05 0)
(0.000958239553162 -7.61218441131e-05 0)
(0.000988589112029 -8.06122018414e-05 0)
(0.00102049480435 -8.48769201463e-05 0)
(0.0010538348218 -8.88020198782e-05 0)
(0.00108844357421 -9.22557457307e-05 0)
(0.00112410641863 -9.50908813314e-05 0)
(0.00116055555415 -9.71489417521e-05 0)
(0.00119746772847 -9.82663975705e-05 0)
(0.00123446441299 -9.82828435018e-05 0)
(0.00127111502205 -9.70507395447e-05 0)
(0.00130694357327 -9.44460896266e-05 0)
(0.00134143893221 -9.03792444088e-05 0)
(0.00137406849917 -8.480493917e-05 0)
(0.00140429491454 -7.77306523223e-05 0)
(0.00143159508433 -6.92223127492e-05 0)
(0.00145548052275 -5.94062763357e-05 0)
(0.00147551764658 -4.84664675504e-05 0)
(0.00149134628585 -3.66359016608e-05 0)
(0.00150269446473 -2.41826941179e-05 0)
(0.00150938769924 -1.13920639354e-05 0)
(0.00151135181092 1.45278062479e-06 0)
(0.00150860943461 1.40874367867e-05 0)
(0.00150127156061 2.62780174633e-05 0)
(0.00148952610914 3.78268560443e-05 0)
(0.00147362552939 4.85729103673e-05 0)
(0.00145387493436 5.83885598239e-05 0)
(0.0014306215675 6.71749822661e-05 0)
(0.00140424567962 7.48580189197e-05 0)
(0.00137515238816 8.13856694041e-05 0)
(0.00134376389813 8.67274560786e-05 0)
(0.00131051155303 9.08751833927e-05 0)
(0.00127582744012 9.3844232424e-05 0)
(0.00124013558571 9.56744423421e-05 0)
(0.00120384306497 9.64297700464e-05 0)
(0.00116733156302 9.61962341293e-05 0)
(0.00113095000981 9.50780741153e-05 0)
(0.00109500885023 9.31924804296e-05 0)
(0.00105977632208 9.06635535418e-05 0)
(0.00102547685867 8.76162559241e-05 0)
(0.000992291482645 8.41710314784e-05 0)
(0.000960359868466 8.04395498319e-05 0)
(0.000929783649406 7.65217764445e-05 0)
(0.000900630524976 7.25043451801e-05 0)
(0.000872938765685 6.8460056574e-05 0)
(0.000846721786675 6.44482478301e-05 0)
(0.000821972547601 6.05157661245e-05 0)
(0.000798667617452 5.66983027968e-05 0)
(0.000776770811707 5.30218926986e-05 0)
(0.000756236362291 4.95044345184e-05 0)
(0.000737011618757 4.61571356878e-05 0)
(0.000719039304212 4.298582444e-05 0)
(0.00070225936438 3.99921012597e-05 0)
(0.00068661045556 3.71743224174e-05 0)
(0.00067203111935 3.45284217475e-05 0)
(0.000658460690748 3.20485844081e-05 0)
(0.000645839982811 2.97277903137e-05 0)
(0.000634111786637 2.75582459267e-05 0)
(0.000623221220498 2.55317227803e-05 0)
(0.000613115957054 2.36398195516e-05 0)
(0.00060374635292 2.1874162863e-05 0)
(0.000595065500578 2.02265599081e-05 0)
(0.000587029218827 1.86891143533e-05 0)
(0.000579595994597 1.72543151759e-05 0)
(0.000572726886037 1.5915106916e-05 0)
(0.000566385394306 1.46649485595e-05 0)
(0.000560537309339 1.34978676242e-05 0)
(0.000555150533105 1.24085152682e-05 0)
(0.000550194882469 1.13922280357e-05 0)
(0.000545641872704 1.04451014205e-05 0)
(0.000541464482211 9.56408034308e-06 0)
(0.000537636899077 8.74707099316e-06 0)
(0.000534134251223 7.99307758774e-06 0)
(0.00053093232439 7.30236506547e-06 0)
(0.000528007276936 6.67664398625e-06 0)
(0.000525335368331 6.11926387982e-06 0)
(0.000522892730882 5.63538217063e-06 0)
(0.00052065523321 5.2320381804e-06 0)
(0.000518598510565 4.91798891076e-06 0)
(0.000516698268789 4.70301938406e-06 0)
(0.000514930989371 4.59615357281e-06 0)
(0.00051327510356 4.60161657456e-06 0)
(0.000511712314333 4.71031262182e-06 0)
(0.000510227239844 4.88314227974e-06 0)
(0.000508800138059 5.02439123902e-06 0)
(0.00121282244378 0.000152650636927 0)
(0.00124161892757 0.000326865756683 0)
(0.0012655471516 0.000397618154155 0)
(0.00127168217888 0.000406707056504 0)
(0.00126028666258 0.000385322406932 0)
(0.0012360040717 0.000351272645675 0)
(0.00120367258912 0.000313656292618 0)
(0.00116712568364 0.000276814786217 0)
(0.00112909924824 0.000242641937567 0)
(0.00109143405982 0.000211806376761 0)
(0.00105530947525 0.00018438117871 0)
(0.00102143870937 0.000160165463325 0)
(0.000990216110322 0.000138847496328 0)
(0.000961823298709 0.000120086027536 0)
(0.000936303801637 0.000103549295787 0)
(0.000913614698585 8.89321426518e-05 0)
(0.000893661908808 7.59619360778e-05 0)
(0.000876324010079 6.43989420677e-05 0)
(0.000861468097498 5.40341156241e-05 0)
(0.000848960160443 4.46858625792e-05 0)
(0.000838671710317 3.61965634635e-05 0)
(0.000830483862043 2.8429243417e-05 0)
(0.000824289700018 2.12645559864e-05 0)
(0.000819995499221 1.45981366247e-05 0)
(0.000817521191322 8.33832616805e-06 0)
(0.000816800339905 2.40423979672e-06 0)
(0.000817779801631 -3.27585211241e-06 0)
(0.000820419185495 -8.76585006898e-06 0)
(0.000824690186695 -1.41229172938e-05 0)
(0.000830575840902 -1.9398349343e-05 0)
(0.000838069714134 -2.46382250927e-05 0)
(0.000847175031183 -2.9883856975e-05 0)
(0.000857903733625 -3.51720433827e-05 0)
(0.000870275447296 -4.05351193953e-05 0)
(0.00088431632974 -4.60007958575e-05 0)
(0.000900057759722 -5.15917712304e-05 0)
(0.000917534823077 -5.73250963835e-05 0)
(0.000936784541982 -6.32112699035e-05 0)
(0.000957843788343 -6.92530421316e-05 0)
(0.000980746817184 -7.54439111526e-05 0)
(0.00100552235358 -8.17663060112e-05 0)
(0.0010321901686 -8.81894737899e-05 0)
(0.00106075708823 -9.46671214976e-05 0)
(0.0010912123973 -0.000101134913544 0)
(0.0011235226323 -0.000107507993436 0)
(0.00115762580742 -0.00011367878299 0)
(0.00119342519095 -0.000119515408549 0)
(0.00123078284848 -0.000124861197163 0)
(0.00126951329335 -0.000129535753251 0)
(0.00130937772478 -0.000133338133865 0)
(0.00135007947128 -0.000136052552041 0)
(0.00139126135785 -0.000137456825601 0)
(0.0014325057418 -0.000137333458107 0)
(0.00147333787765 -0.000135482841037 0)
(0.00151323306849 -0.000131737698862 0)
(0.00155162776818 -0.00012597766064 0)
(0.00158793447915 -0.000118142766792 0)
(0.00162155999991 -0.000108244726997 0)
(0.001651926313 -9.63746888081e-05 0)
(0.00167849309958 -8.2706096455e-05 0)
(0.00170078044469 -6.74910926848e-05 0)
(0.00171838978813 -5.10492425113e-05 0)
(0.00173102079284 -3.37485287525e-05 0)
(0.0017384819103 -1.5980583003e-05 0)
(0.00174069331186 1.86577431584e-06 0)
(0.00173768239067 1.94277183409e-05 0)
(0.00172957356655 3.63844026868e-05 0)
(0.00171657492666 5.24645232797e-05 0)
(0.00169896413887 6.74465660213e-05 0)
(0.00167707539493 8.11541944395e-05 0)
(0.0016512882107 9.34498475044e-05 0)
(0.00162201801453 0.000104229185224 0)
(0.00158970785589 0.000113417900529 0)
(0.00155482038875 0.000120971130286 0)
(0.00151782945956 0.000126874733357 0)
(0.00147921098151 0.000131147225772 0)
(0.00143943316178 0.000133841078592 0)
(0.00139894649388 0.000135042281434 0)
(0.00135817417866 0.000134867502728 0)
(0.00131750373856 0.000133458765545 0)
(0.00127728050622 0.000130976151513 0)
(0.00123780342646 0.000127589464716 0)
(0.00119932329089 0.000123469921606 0)
(0.00116204322159 0.000118782792234 0)
(0.00112612100473 0.000113681604133 0)
(0.00109167277054 0.000108304161992 0)
(0.00105877751105 0.000102770332339 0)
(0.00102748198915 9.71813412492e-05 0)
(0.000997805686279 9.16202371851e-05 0)
(0.000969745537249 8.61531582104e-05 0)
(0.000943280290593 8.08310817596e-05 0)
(0.000918374405957 7.56917990158e-05 0)
(0.000894981454349 7.0761924566e-05 0)
(0.000873047024561 6.60588145715e-05 0)
(0.000852511163042 6.15923173527e-05 0)