/*--------------------------------*- C++ -*----------------------------------*\
  =========                 |
  \\      /  F ield         | OpenFOAM: The Open Source CFD Toolbox
   \\    /   O peration     | Website:  https://openfoam.org
    \\  /    A nd           | Version:  7
     \\/     M anipulation  |
\*---------------------------------------------------------------------------*/
FoamFile
{
    version     2.0;
    format      ascii;
    class       volScalarField;
    location    "1680";
    object      Ci;
}
// * * * * * * * * * * * * * * * * * * * * * * * * * * * * * * * * * * * * * //

dimensions      [0 -3 0 0 1 0 0];

internalField   nonuniform List<scalar> 
8192
(
9.99999999628
10.0000000129
10.0000000376
10.0000000697
10.00000011
10.0000001578
10.0000002098
10.0000002643
10.0000003199
10.0000003757
10.000000431
10.0000004852
10.0000005382
10.0000005899
10.0000006402
10.0000006892
10.000000737
10.0000007836
10.0000008289
10.0000008727
10.000000914
10.0000009522
10.0000009872
10.0000010189
10.0000010472
10.0000010719
10.0000010929
10.0000011099
10.0000011226
10.0000011307
10.0000011338
10.000001131
10.0000011208
10.0000011024
10.0000010761
10.0000010419
10.0000010004
10.0000009514
10.0000008951
10.0000008312
10.0000007598
10.0000006802
10.0000005924
10.0000004957
10.0000003901
10.0000002749
10.0000001503
10.0000000157
9.99999987147
9.99999971701
9.99999955291
9.99999937854
9.99999919464
9.99999900067
9.99999879766
9.99999858544
9.99999836572
9.99999813911
9.99999790837
9.99999767523
9.99999744359
9.99999721612
9.99999699742
9.99999679057
9.99999660036
9.99999642989
9.99999628393
9.99999616554
9.9999960793
9.99999602788
9.99999601506
9.9999960423
9.99999611173
9.99999622285
9.9999963756
9.99999656733
9.99999679585
9.99999705678
9.99999734642
9.99999765936
9.99999799123
9.99999833642
9.99999869059
9.99999904864
9.99999940683
9.99999976097
10.0000001082
10.0000004455
10.0000007709
10.0000010823
10.0000013787
10.0000016589
10.0000019229
10.0000021714
10.0000024095
10.0000026433
10.0000028735
10.0000030994
10.0000033198
10.0000035338
10.0000037407
10.0000039403
10.0000041322
10.0000043167
10.0000044939
10.0000046643
10.0000048282
10.0000049862
10.0000051388
10.0000052866
10.0000054301
10.0000055699
10.0000057066
10.0000058406
10.0000059724
10.0000061026
10.0000062315
10.0000063595
10.0000064871
10.0000066147
10.0000067424
10.0000068707
10.000006999
10.000007127
10.0000072528
10.0000073729
10.0000074793
10.0000075505
10.0000000024
10.0000000217
10.0000000465
10.0000000759
10.000000111
10.000000151
10.0000001951
10.0000002423
10.0000002915
10.000000342
10.0000003931
10.0000004446
10.000000496
10.0000005474
10.0000005986
10.0000006497
10.0000007007
10.0000007516
10.0000008023
10.0000008526
10.0000009002
10.0000009446
10.0000009863
10.0000010254
10.0000010619
10.0000010955
10.0000011261
10.0000011535
10.0000011773
10.0000011972
10.000001213
10.0000012238
10.0000012252
10.0000012179
10.0000012027
10.0000011799
10.0000011499
10.0000011123
10.0000010673
10.0000010141
10.0000009523
10.0000008811
10.0000007997
10.0000007071
10.0000006027
10.0000004855
10.0000003551
10.0000002105
10.0000000515
9.99999987729
9.99999968806
9.99999948328
9.99999926367
9.99999902944
9.99999878231
9.99999852368
9.99999825672
9.99999798423
9.99999771071
9.99999743994
9.9999971769
9.99999692533
9.9999966898
9.99999647348
9.99999628044
9.99999611367
9.99999597727
9.99999587423
9.99999580827
9.99999578151
9.99999579621
9.99999585269
9.99999595119
9.99999609014
9.99999626798
9.99999648157
9.99999672799
9.99999700298
9.99999730271
9.99999762239
9.99999795786
9.99999830431
9.99999865776
9.99999901385
9.99999936915
9.99999972004
10.0000000638
10.0000003978
10.00000072
10.0000010285
10.0000013223
10.0000016
10.0000018611
10.0000021054
10.0000023427
10.0000025837
10.0000028231
10.0000030579
10.0000032864
10.0000035075
10.0000037207
10.0000039257
10.0000041225
10.0000043113
10.0000044923
10.0000046661
10.0000048332
10.000004994
10.0000051493
10.0000052995
10.0000054452
10.0000055872
10.0000057257
10.0000058616
10.000005995
10.0000061267
10.0000062569
10.0000063862
10.0000065148
10.0000066433
10.0000067718
10.0000069007
10.0000070297
10.0000071585
10.0000072861
10.0000074096
10.0000075261
10.0000076081
10.0000000026
10.000000024
10.0000000495
10.0000000755
10.0000001033
10.0000001339
10.0000001676
10.0000002046
10.0000002447
10.0000002878
10.0000003336
10.0000003817
10.000000432
10.0000004841
10.0000005378
10.0000005929
10.0000006492
10.0000007064
10.0000007645
10.0000008233
10.0000008824
10.0000009417
10.000001001
10.0000010601
10.0000011188
10.0000011768
10.0000012338
10.0000012893
10.0000013431
10.0000013946
10.0000014434
10.0000014889
10.0000015303
10.000001567
10.0000015987
10.0000016248
10.0000016446
10.0000016573
10.000001662
10.0000016574
10.0000016424
10.0000016156
10.0000015758
10.0000015214
10.0000014516
10.0000013645
10.0000012597
10.0000011355
10.0000009917
10.000000827
10.0000006417
10.0000004349
10.0000002077
9.99999995996
9.99999969381
9.99999941032
9.9999991128
9.99999880358
9.99999848715
9.99999816673
9.9999978474
9.99999753263
9.99999722757
9.9999969357
9.99999666236
9.99999641147
9.99999618892
9.99999599908
9.99999584772
9.99999573849
9.99999567559
9.9999956606
9.99999569525
9.99999577867
9.99999591013
9.9999960866
9.99999630534
9.99999656177
9.99999685179
9.99999717001
9.99999751175
9.99999787153
9.99999824475
9.99999862636
9.99999901231
9.99999939835
9.99999978123
10.0000001576
10.0000005252
10.0000008816
10.0000012252
10.0000015547
10.0000018692
10.0000021678
10.0000024516
10.0000027235
10.0000029842
10.0000032339
10.0000034727
10.0000037008
10.0000039185
10.0000041262
10.0000043244
10.0000045138
10.0000046949
10.0000048685
10.000005035
10.0000051953
10.00000535
10.0000054997
10.0000056451
10.0000057867
10.000005925
10.0000060606
10.0000061939
10.0000063254
10.0000064554
10.0000065843
10.0000067124
10.0000068401
10.0000069675
10.0000070947
10.0000072216
10.0000073476
10.0000074727
10.0000075925
10.0000077175
10.000007777
10.0000000017
10.0000000253
10.0000000523
10.0000000769
10.0000001004
10.0000001246
10.000000151
10.0000001803
10.0000002131
10.0000002498
10.0000002908
10.0000003362
10.0000003863
10.0000004409
10.0000005001
10.0000005636
10.0000006313
10.000000703
10.0000007784
10.0000008574
10.0000009395
10.0000010247
10.0000011125
10.0000012028
10.000001295
10.0000013889
10.0000014838
10.0000015795
10.000001675
10.0000017702
10.000001864
10.000001956
10.0000020449
10.0000021305
10.0000022111
10.0000022865
10.0000023546
10.000002415
10.0000024657
10.0000025056
10.000002533
10.0000025466
10.0000025448
10.0000025261
10.0000024895
10.0000024335
10.0000023574
10.0000022601
10.0000021412
10.0000020001
10.0000018368
10.0000016512
10.0000014439
10.0000012153
10.0000009667
10.0000006991
10.0000004148
10.0000001156
9.99999980439
9.9999994837
9.99999915687
9.99999882676
9.99999849693
9.99999817056
9.99999785182
9.99999754483
9.99999725491
9.99999698727
9.99999674788
9.99999654195
9.99999637465
9.99999624977
9.99999617063
9.99999613898
9.99999615603
9.99999622147
9.99999633446
9.99999649282
9.99999669394
9.99999693416
9.99999720958
9.99999751556
9.99999784748
9.9999982003
9.99999856926
9.99999894945
9.99999933649
9.99999972609
10.0000001146
10.0000004986
10.0000008753
10.0000012423
10.0000015978
10.0000019402
10.0000022686
10.0000025828
10.0000028827
10.0000031686
10.0000034407
10.0000036995
10.0000039456
10.0000041796
10.0000044022
10.0000046143
10.0000048167
10.0000050101
10.0000051953
10.0000053732
10.0000055444
10.0000057096
10.0000058696
10.000006025
10.0000061762
10.000006324
10.0000064685
10.0000066104
10.00000675
10.0000068875
10.0000070232
10.0000071573
10.0000072901
10.0000074214
10.0000075513
10.0000076782
10.000007805
10.0000079181
10.0000080629
10.0000080514
10.0000000014
10.0000000275
10.0000000574
10.0000000825
10.0000001039
10.0000001243
10.0000001465
10.000000172
10.0000002015
10.0000002357
10.0000002752
10.0000003205
10.0000003721
10.0000004302
10.000000495
10.0000005665
10.0000006448
10.0000007296
10.0000008207
10.0000009178
10.0000010206
10.0000011287
10.0000012415
10.0000013586
10.0000014791
10.0000016029
10.0000017284
10.0000018561
10.0000019835
10.0000021118
10.0000022374
10.0000023625
10.0000024822
10.0000025998
10.000002709
10.0000028139
10.0000029076
10.0000029942
10.0000030673
10.0000031298
10.0000031768
10.0000032096
10.0000032255
10.0000032242
10.0000032045
10.0000031658
10.0000031076
10.0000030295
10.0000029316
10.0000028137
10.0000026763
10.0000025195
10.0000023441
10.0000021505
10.0000019397
10.0000017125
10.0000014703
10.0000012142
10.000000946
10.0000006671
10.0000003796
10.000000085
9.99999978548
9.99999948284
9.99999917982
9.99999887927
9.99999858523
9.99999830194
9.99999803454
9.9999977878
9.99999756667
9.9999973752
9.99999721721
9.99999709553
9.99999701266
9.99999697019
9.99999696936
9.9999970105
9.99999709355
9.99999721751
9.99999738097
9.99999758164
9.99999781675
9.99999808287
9.99999837624
9.99999869264
9.9999990278
9.99999937733
9.999999737
10.0000001027
10.0000004708
10.0000008377
10.0000012007
10.000001557
10.0000019046
10.0000022419
10.0000025677
10.0000028813
10.0000031821
10.0000034701
10.0000037455
10.0000040086
10.00000426
10.0000045004
10.0000047303
10.0000049505
10.0000051619
10.0000053652
10.000005561
10.0000057501
10.0000059331
10.0000061105
10.000006283
10.0000064509
10.0000066146
10.0000067744
10.0000069307
10.0000070836
10.0000072332
10.0000073797
10.0000075232
10.0000076632
10.0000078006
10.0000079315
10.0000080655
10.0000081707
10.0000083424
10.00000828
10.0000000011
10.0000000294
10.0000000619
10.0000000887
10.0000001099
10.0000001289
10.0000001492
10.0000001733
10.0000002022
10.0000002367
10.0000002773
10.0000003246
10.0000003792
10.0000004415
10.0000005117
10.00000059
10.0000006765
10.000000771
10.0000008732
10.0000009829
10.0000010993
10.0000012221
10.0000013502
10.0000014836
10.0000016201
10.0000017607
10.0000019017
10.0000020459
10.0000021868
10.0000023307
10.0000024666
10.0000026059
10.0000027316
10.0000028617
10.0000029724
10.0000030876
10.0000031794
10.0000032737
10.000003343
10.0000034106
10.0000034545
10.0000034908
10.0000035064
10.000003509
10.0000034933
10.0000034618
10.0000034132
10.0000033481
10.0000032667
10.0000031692
10.0000030561
10.0000029277
10.0000027844
10.0000026266
10.0000024547
10.0000022692
10.0000020708
10.0000018602
10.0000016385
10.0000014069
10.0000011665
10.0000009188
10.0000006649
10.0000004061
10.0000001441
9.99999988095
9.9999996195
9.99999936317
9.99999911584
9.99999888141
9.99999866364
9.9999984657
9.99999829039
9.99999813992
9.99999801632
9.9999979212
9.99999785618
9.99999782247
9.99999782129
9.99999785338
9.99999791928
9.99999801886
9.99999815164
9.99999831634
9.99999851125
9.99999873396
9.99999898174
9.99999925136
9.99999953947
9.99999984251
10.000000157
10.0000004795
10.0000008069
10.0000011362
10.0000014646
10.0000017901
10.0000021105
10.0000024245
10.0000027307
10.0000030283
10.0000033169
10.0000035962
10.0000038661
10.0000041268
10.0000043787
10.0000046221
10.0000048575
10.0000050854
10.0000053061
10.0000055203
10.0000057283
10.0000059304
10.000006127
10.0000063184
10.0000065047
10.000006686
10.0000068624
10.0000070339
10.0000072004
10.0000073618
10.0000075182
10.0000076687
10.0000078151
10.0000079506
10.0000080922
10.0000081908
10.0000083767
10.0000083046
10.000000001
10.0000000311
10.0000000664
10.0000000952
10.0000001168
10.0000001352
10.0000001546
10.0000001781
10.0000002077
10.0000002434
10.0000002861
10.0000003362
10.0000003942
10.0000004603
10.0000005348
10.0000006179
10.0000007096
10.0000008097
10.0000009177
10.0000010336
10.0000011558
10.0000012851
10.0000014182
10.0000015576
10.0000016973
10.0000018433
10.0000019842
10.0000021333
10.0000022692
10.0000024184
10.0000025426
10.0000026891
10.0000027954
10.0000029359
10.0000030195
10.0000031491
10.0000032087
10.0000033199
10.0000033576
10.0000034414
10.000003461
10.0000035102
10.0000035135
10.0000035262
10.000003511
10.0000034904
10.0000034527
10.0000034034
10.0000033409
10.0000032656
10.0000031778
10.0000030774
10.0000029646
10.0000028391
10.000002701
10.0000025504
10.0000023875
10.0000022128
10.000002027
10.0000018312
10.0000016265
10.0000014141
10.0000011951
10.0000009708
10.0000007427
10.0000005126
10.0000002831
10.0000000574
9.99999983891
9.99999963116
9.99999943727
9.99999925968
9.9999991002
9.99999896
9.99999883996
9.99999874068
9.9999986628
9.999998607
9.99999857405
9.99999856482
9.99999858011
9.99999862063
9.99999868682
9.99999877878
9.9999988962
9.99999903833
9.99999920396
9.99999939151
9.99999959902
9.9999998243
10.0000000649
10.0000003185
10.0000005824
10.0000008544
10.000001132
10.0000014131
10.0000016959
10.0000019786
10.0000022599
10.0000025385
10.0000028136
10.0000030844
10.0000033506
10.0000036117
10.0000038677
10.0000041184
10.0000043639
10.0000046042
10.0000048395
10.0000050696
10.0000052948
10.000005515
10.0000057301
10.00000594
10.0000061446
10.0000063436
10.0000065367
10.0000067236
10.0000069039
10.0000070774
10.0000072437
10.0000074018
10.0000075536
10.0000076914
10.0000078343
10.0000079304
10.0000081062
10.0000080602
10.0000000008
10.000000032
10.0000000692
10.0000001003
10.0000001233
10.0000001419
10.0000001611
10.0000001846
10.0000002147
10.0000002524
10.0000002973
10.0000003503
10.0000004115
10.0000004811
10.000000559
10.0000006455
10.0000007401
10.0000008432
10.0000009533
10.0000010714
10.0000011942
10.0000013248
10.0000014558
10.0000015961
10.0000017296
10.000001877
10.0000020053
10.000002159
10.0000022727
10.0000024341
10.0000025219
10.0000026946
10.000002745
10.0000029326
10.0000029373
10.0000031385
10.0000030988
10.0000033017
10.0000032324
10.0000034134
10.0000033392
10.0000034715
10.0000034137
10.000003483
10.0000034453
10.0000034581
10.0000034265
10.0000034007
10.0000033582
10.0000033068
10.0000032444
10.0000031706
10.0000030853
10.0000029878
10.0000028778
10.0000027551
10.0000026194
10.0000024713
10.0000023111
10.0000021399
10.0000019587
10.0000017688
10.0000015714
10.0000013677
10.0000011593
10.0000009482
10.0000007371
10.0000005294
10.000000329
10.0000001395
9.99999996431
9.99999980559
9.99999966491
9.99999954272
9.99999943912
9.99999935381
9.99999928632
9.99999923654
9.99999920432
9.99999918973
9.99999919267
9.9999992134
9.9999992524
9.99999930981
9.99999938579
9.99999948014
9.99999959252
9.99999972228
9.99999986859
10.0000000304
10.0000002063
10.0000003952
10.0000005954
10.0000008055
10.000001024
10.0000012494
10.0000014805
10.0000017159
10.0000019545
10.0000021952
10.0000024374
10.0000026801
10.0000029228
10.000003165
10.0000034062
10.0000036461
10.0000038844
10.0000041206
10.0000043546
10.0000045859
10.0000048141
10.0000050388
10.0000052596
10.0000054759
10.000005687
10.0000058925
10.0000060914
10.0000062834
10.0000064674
10.0000066433
10.0000068097
10.0000069667
10.0000071139
10.0000072473
10.0000073786
10.0000074723
10.0000076156
10.000007606
10.0000000008
10.0000000332
10.0000000719
10.0000001048
10.0000001291
10.0000001481
10.0000001671
10.0000001906
10.0000002211
10.0000002602
10.0000003074
10.000000363
10.0000004271
10.0000004998
10.0000005805
10.0000006698
10.0000007663
10.0000008714
10.0000009815
10.0000011007
10.0000012208
10.0000013521
10.0000014762
10.0000016183
10.0000017379
10.0000018921
10.0000019947
10.0000021675
10.0000022347
10.0000024402
10.0000024466
10.0000027074
10.0000026216
10.000002965
10.0000027582
10.0000032026
10.0000028661
10.0000033996
10.0000029669
10.0000035299
10.0000030826
10.0000035772
10.0000032156
10.0000035542
10.0000033374
10.0000034995
10.0000034072
10.0000034444
10.0000034072
10.0000033859
10.0000033479
10.0000032998
10.000003241
10.0000031698
10.0000030865
10.0000029899
10.0000028795
10.0000027553
10.0000026176
10.000002467
10.0000023041
10.0000021301
10.0000019459
10.0000017527
10.0000015522
10.0000013466
10.000001139
10.0000009333
10.000000734
10.0000005456
10.0000003722
10.0000002167
10.000000081
9.99999996505
9.99999986942
9.99999979412
9.99999973849
9.99999970165
9.99999968248
9.9999996798
9.99999969256
9.99999971947
9.99999975988
9.99999981253
9.99999987748
9.99999995313
10.0000000407
10.0000001404
10.0000002517
10.0000003744
10.0000005079
10.0000006516
10.0000008049
10.0000009671
10.0000011374
10.0000013151
10.0000014995
10.00000169
10.0000018858
10.0000020864
10.0000022912
10.0000024996
10.0000027113
10.0000029256
10.0000031421
10.0000033603
10.0000035797
10.0000037998
10.0000040199
10.0000042393
10.0000044574
10.0000046734
10.0000048863
10.0000050954
10.0000052995
10.000005498
10.0000056892
10.0000058731
10.0000060474
10.0000062131
10.0000063665
10.0000065109
10.0000066403
10.00000676
10.0000068655
10.0000069513
10.0000070469
10.0000070649
10.0000000007
10.0000000339
10.0000000734
10.0000001081
10.000000134
10.0000001539
10.000000173
10.0000001963
10.000000227
10.0000002667
10.0000003156
10.0000003733
10.0000004399
10.0000005155
10.0000005987
10.0000006908
10.0000007886
10.000000896
10.0000010053
10.0000011265
10.0000012421
10.0000013765
10.0000014898
10.0000016399
10.0000017371
10.0000019121
10.0000019701
10.0000021921
10.0000021728
10.0000024844
10.0000023267
10.0000027978
10.0000024147
10.0000031404
10.0000024294
10.000003506
10.0000023891
10.0000038565
10.0000023514
10.0000041155
10.0000024043
10.0000041973
10.0000026128
10.0000040769
10.000002947
10.0000038424
10.000003274
10.0000036393
10.0000034634
10.0000035362
10.000003501
10.000003482
10.00000345
10.000003404
10.0000033464
10.000003275
10.0000031893
10.0000030894
10.0000029736
10.0000028422
10.0000026953
10.0000025339
10.0000023587
10.0000021714
10.000001973
10.0000017662
10.0000015542
10.0000013417
10.0000011342
10.0000009362
10.0000007547
10.0000005903
10.0000004464
10.000000325
10.0000002272
10.000000153
10.000000102
10.0000000729
10.000000064
10.0000000733
10.0000000988
10.0000001381
10.0000001895
10.0000002509
10.0000003209
10.0000003984
10.000000482
10.0000005722
10.0000006673
10.0000007698
10.0000008798
10.0000009971
10.0000011218
10.0000012535
10.0000013922
10.0000015375
10.0000016891
10.0000018469
10.0000020104
10.0000021795
10.0000023539
10.0000025333
10.0000027172
10.0000029053
10.0000030973
10.0000032924
10.0000034903
10.0000036901
10.0000038912
10.0000040926
10.0000042934
10.0000044925
10.0000046889
10.0000048815
10.0000050688
10.00000525
10.0000054232
10.0000055884
10.0000057422
10.0000058874
10.0000060171
10.0000061395
10.0000062407
10.000006339
10.0000064083
10.0000064799
10.0000065213
10.000006553
10.0000000007
10.0000000348
10.0000000748
10.0000001106
10.0000001379
10.0000001585
10.0000001776
10.0000002006
10.0000002311
10.000000271
10.0000003209
10.0000003802
10.0000004486
10.0000005268
10.0000006121
10.0000007072
10.0000008061
10.0000009165
10.0000010243
10.0000011495
10.0000012589
10.0000014006
10.000001499
10.0000016656
10.0000017306
10.0000019441
10.0000019355
10.000002244
10.000002088
10.0000025852
10.0000021528
10.0000030018
10.000002086
10.0000035365
10.0000018471
10.0000042163
10.0000014339
10.0000050056
10.0000009379
10.0000057498
10.0000005815
10.0000061753
10.0000006579
10.0000060297
10.0000013171
10.0000053311
10.000002337
10.0000044736
10.0000032194
10.0000039162
10.000003646
10.0000037406
10.0000037254
10.0000037051
10.000003681
10.0000036374
10.0000035787
10.0000035029
10.0000034119
10.0000033004
10.000003168
10.0000030169
10.0000028491
10.0000026637
10.0000024592
10.0000022377
10.000002005
10.0000017704
10.0000015404
10.0000013245
10.0000011234
10.0000009412
10.0000007814
10.0000006467
10.0000005389
10.0000004587
10.0000004059
10.0000003792
10.0000003764
10.0000003948
10.0000004313
10.0000004829
10.0000005465
10.0000006197
10.0000007
10.000000786
10.0000008757
10.000000969
10.0000010645
10.0000011627
10.000001263
10.0000013673
10.0000014768
10.0000015918
10.0000017124
10.0000018387
10.0000019708
10.0000021087
10.0000022522
10.0000024013
10.0000025557
10.0000027153
10.0000028798
10.0000030489
10.000003222
10.0000033986
10.0000035782
10.0000037598
10.0000039427
10.0000041258
10.0000043081
10.0000044884
10.0000046653
10.0000048377
10.0000050039
10.0000051633
10.0000053133
10.0000054547
10.0000055827
10.0000057023
10.0000058031
10.000005899
10.0000059672
10.0000060404
10.0000060704
10.0000061237
10.0000061125
10.0000061466
10.0000000007
10.0000000352
10.0000000756
10.0000001125
10.0000001411
10.0000001625
10.0000001818
10.0000002042
10.0000002341
10.0000002737
10.0000003237
10.000000384
10.0000004537
10.0000005342
10.0000006211
10.0000007194
10.0000008191
10.0000009335
10.0000010397
10.0000011705
10.0000012732
10.000001425
10.0000015072
10.000001695
10.0000017246
10.0000019854
10.0000019008
10.0000023149
10.0000019971
10.0000027255
10.0000019504
10.0000032929
10.000001664
10.0000041312
10.0000010116
10.0000053717
9.9999998814
10.0000070832
9.99999829419
10.0000091145
9.99999658452
10.0000109261
9.99999550323
10.0000116347
9.99999593334
10.0000105575
9.9999981234
10.0000080454
10.0000010756
10.0000055537
10.0000032195
10.0000042938
10.0000040003
10.0000040611
10.0000040878
10.0000040597
10.0000040322
10.0000039886
10.0000039186
10.0000038178
10.0000036955
10.0000035684
10.0000034201
10.0000032107
10.0000029179
10.0000025636
10.0000022014
10.0000018791
10.0000016213
10.0000014223
10.0000012629
10.0000011268
10.0000010052
10.0000008964
10.000000804
10.0000007322
10.0000006847
10.0000006627
10.0000006655
10.0000006907
10.0000007348
10.0000007944
10.0000008659
10.0000009464
10.0000010332
10.0000011249
10.0000012196
10.000001317
10.0000014158
10.0000015162
10.0000016173
10.0000017201
10.0000018236
10.0000019309
10.000002043
10.0000021601
10.0000022825
10.0000024104
10.0000025438
10.0000026826
10.0000028267
10.0000029757
10.0000031294
10.0000032873
10.0000034489
10.0000036134
10.0000037803
10.0000039487
10.0000041174
10.0000042856
10.0000044519
10.0000046152
10.0000047739
10.0000049271
10.0000050727
10.0000052104
10.0000053372
10.0000054547
10.0000055568
10.0000056508
10.0000057229
10.0000057926
10.0000058289
10.0000058773
10.0000058711
10.0000059051
10.0000058494
10.0000058784
10.0000000008
10.0000000357
10.0000000762
10.0000001133
10.0000001429
10.0000001651
10.0000001844
10.0000002064
10.0000002354
10.0000002743
10.0000003238
10.0000003847
10.000000455
10.0000005375
10.0000006257
10.0000007271
10.0000008277
10.0000009462
10.0000010516
10.0000011877
10.0000012862
10.0000014463
10.0000015176
10.000001721
10.000001727
10.0000020203
10.0000018853
10.0000023716
10.0000019424
10.000002837
10.0000018074
10.0000035381
10.0000013181
10.0000046878
10.0000002106
10.0000066084
9.99999812507
10.0000096773
9.99999473406
10.0000140928
9.99999011021
10.0000193811
9.99998529219
10.0000238602
9.99998256674
10.0000248827
9.99998445139
10.0000207404
9.99999112171
10.0000132244
9.99999891055
10.0000070088
10.0000034734
10.0000046853
10.0000045758
10.0000045024
10.0000045903
10.0000045786
10.0000044839
10.0000043652
10.0000043675
10.0000044084
10.0000040968
10.0000030655
10.0000013503
9.99999942168
9.99999787469
9.9999970824
9.99999708569
9.99999764772
9.99999845347
9.99999924162
9.99999986764
10.0000002952
10.0000005543
10.0000006987
10.0000007792
10.0000008329
10.0000008822
10.0000009388
10.0000010072
10.0000010879
10.0000011786
10.0000012761
10.0000013766
10.0000014775
10.000001577
10.0000016748
10.000001771
10.0000018671
10.0000019637
10.0000020621
10.0000021628
10.0000022661
10.000002373
10.0000024855
10.0000026037
10.0000027275
10.0000028569
10.0000029914
10.000003131
10.0000032751
10.0000034234
10.0000035754
10.0000037305
10.0000038878
10.0000040467
10.0000042061
10.000004365
10.0000045222
10.0000046763
10.0000048262
10.0000049703
10.0000051074
10.0000052356
10.0000053547
10.0000054613
10.0000055578
10.0000056373
10.0000057086
10.0000057558
10.0000058022
10.0000058115
10.0000058376
10.0000058018
10.0000058173
10.0000057275
10.0000057471
10.0000000007
10.000000036
10.0000000768
10.0000001142
10.0000001444
10.0000001672
10.0000001865
10.0000002079
10.0000002356
10.0000002736
10.0000003219
10.0000003828
10.0000004533
10.0000005372
10.0000006266
10.0000007306
10.000000833
10.0000009545
10.0000010615
10.0000012004
10.0000013003
10.0000014619
10.0000015351
10.0000017371
10.0000017479
10.0000020338
10.000001911
10.0000023796
10.0000019747
10.0000028408
10.0000018403
10.0000035591
10.0000013093
10.0000048172
10.0000000001
10.0000071344
9.99999724531
10.0000113511
9.9999920649
10.0000185378
9.99998347444
10.0000293662
9.99997150263
10.0000426493
9.99995897152
10.0000536369
9.99995244118
10.0000547581
9.99995887877
10.0000418499
9.99997744486
10.000021816
9.99999612762
10.0000083115
10.0000043397
10.00000497
10.0000055075
10.0000050798
10.0000047843
10.000005257
10.0000064186
10.0000055292
9.99999880291
9.99998492541
9.99996682362
9.99995013863
9.99993986699
9.99993814136
9.99994397683
9.99995446851
9.99996637696
9.99997724731
9.99998582181
9.99999187276
9.99999578185
9.9999981392
9.99999949365
10.0000002524
10.0000006772
10.0000009206
10.0000010679
10.0000011689
10.0000012556
10.0000013491
10.0000014614
10.0000015956
10.0000017481
10.0000019107
10.0000020741
10.0000022304
10.0000023744
10.0000025039
10.0000026199
10.0000027246
10.0000028218
10.0000029148
10.0000030101
10.0000031104
10.0000032177
10.0000033331
10.000003457
10.0000035889
10.0000037282
10.0000038737
10.000004024
10.0000041778
10.0000043335
10.0000044896
10.0000046445
10.0000047966
10.0000049444
10.0000050863
10.0000052209
10.0000053466
10.0000054621
10.0000055663
10.0000056572
10.0000057361
10.0000057974
10.000005849
10.0000058762
10.0000059017
10.0000058897
10.0000058949
10.0000058368
10.0000058329
10.0000057188
10.0000057226
10.0000000009
10.0000000361
10.0000000767
10.0000001139
10.0000001444
10.0000001678
10.0000001871
10.000000208
10.0000002345
10.0000002711
10.000000318
10.0000003784
10.0000004489
10.0000005334
10.0000006244
10.00000073
10.0000008353
10.0000009582
10.0000010698
10.0000012079
10.0000013155
10.0000014705
10.0000015592
10.0000017413
10.0000017863
10.0000020233
10.0000019769
10.000002334
10.0000020962
10.0000027215
10.0000020712
10.0000032986
10.0000017372
10.0000043201
10.0000007248
10.0000063391
9.99999824502
10.0000104828
9.99999276985
10.0000187854
9.9999817761
10.0000341742
9.99996227698
10.0000590607
9.99993349744
10.0000911895
9.99990225813
10.0001180852
9.999886514
10.0001186499
9.99990549436
10.0000825029
9.99995391315
10.0000333974
9.99999431075
10.0000087053
10.0000065831
10.0000034161
10.0000062616
10.0000129871
10.0000104366
9.99997054068
9.9998734404
9.99972793635
9.99957139085
9.9994495852
9.99939317888
9.99940844782
9.99948050419
9.99958388861
9.99969321826
9.99979024652
9.99986606663
9.99991957489
9.99995428279
9.99997529092
9.99998734809
9.99999404517
9.99999774771
9.99999984854
10.0000010827
10.0000017976
10.0000021487
10.0000022205
10.0000020868
10.0000018274
10.0000015232
10.0000012438
10.0000010387
10.0000009343
10.000000936
10.0000010343
10.0000012106
10.0000014433
10.0000017112
10.0000019966
10.0000022853
10.0000025707
10.0000028469
10.0000031109
10.0000033615
10.0000035988
10.0000038236
10.0000040366
10.0000042391
10.0000044317
10.0000046153
10.0000047899
10.000004956
10.0000051127
10.0000052606
10.0000053978
10.0000055252
10.0000056398
10.0000057436
10.0000058323
10.0000059087
10.0000059686
10.0000060141
10.0000060438
10.0000060548
10.0000060555
10.0000060276
10.0000060044
10.0000059305
10.0000058934
10.000005763
10.0000057271
10.000000001
10.0000000361
10.0000000771
10.0000001143
10.0000001445
10.000000168
10.0000001873
10.0000002075
10.0000002328
10.0000002677
10.0000003133
10.0000003724
10.0000004428
10.0000005273
10.00000062
10.0000007264
10.0000008355
10.0000009586
10.0000010766
10.000001212
10.0000013306
10.0000014757
10.0000015855
10.0000017417
10.0000018304
10.0000020069
10.0000020551
10.0000022758
10.0000022454
10.0000025677
10.0000023722
10.0000029341
10.0000023598
10.0000035093
10.0000020019
10.0000046425
10.0000007483
10.0000072296
9.99999722421
10.0000133996
9.99998828997
10.0000276377
9.99996790004
10.0000575593
9.99992744865
10.0001113174
9.99986197812
10.0001866362
9.99978583989
10.0002530152
9.99974641529
10.0002518979
9.99979889357
10.0001542753
9.99992096418
10.0000452007
9.99999217646
10.000001796
10.0000380333
10.0000325678
9.99984645618
9.99931368159
9.99840662252
9.9972907535
9.99625649247
9.99557216662
9.9953692486
9.99563072007
9.99623150893
9.99700316527
9.99778877898
9.99847823517
9.99901812651
9.99940254673
9.99965474905
9.99980889377
9.99989751901
9.99994586675
9.99997116127
9.99998417627
9.99999120994
9.99999567389
9.99999919778
10.0000023751
10.0000052692
10.0000077427
10.0000096478
10.0000109115
10.0000115515
10.0000116556
10.0000113498
10.000010768
10.0000100318
10.0000092396
10.0000084626
10.0000077482
10.0000071217
10.0000065952
10.0000061716
10.0000058444
10.000005604
10.0000054387
10.0000053372
10.0000052878
10.000005281
10.0000053069
10.0000053589
10.0000054285
10.0000055122
10.0000056021
10.0000056979
10.0000057903
10.0000058838
10.0000059654
10.000006046
10.0000061059
10.0000061657
10.0000061956
10.0000062286
10.0000062217
10.0000062228
10.0000061742
10.0000061379
10.0000060447
10.0000059628
10.0000058246
10.0000056845
10.0000055034
10.0000000012
10.0000000359
10.0000000764
10.0000001134
10.0000001433
10.0000001665
10.0000001857
10.0000002055
10.0000002299
10.0000002635
10.0000003079
10.0000003658
10.000000436
10.0000005203
10.0000006146
10.0000007215
10.0000008341
10.0000009575
10.0000010814
10.0000012149
10.000001343
10.0000014812
10.0000016072
10.0000017463
10.0000018655
10.0000020035
10.000002113
10.0000022496
10.0000023489
10.0000024849
10.0000025753
10.0000027139
10.0000027928
10.0000029542
10.0000029776
10.0000032793
10.0000029956
10.0000039925
10.0000022914
10.0000061682
9.99999894269
10.0000131709
9.99998737268
10.000033851
9.99995440326
10.0000864896
9.99987707479
10.0001960972
9.99973454909
10.0003688763
9.99954949671
10.0005380858
9.99944349067
10.0005312393
9.99960116511
10.0002547811
9.99986676969
10.0001242257
10.0001403468
9.99943383678
9.99716691683
9.99278922191