/*--------------------------------*- C++ -*----------------------------------*\
  =========                 |
  \\      /  F ield         | OpenFOAM: The Open Source CFD Toolbox
   \\    /   O peration     | Website:  https://openfoam.org
    \\  /    A nd           | Version:  7
     \\/     M anipulation  |
\*---------------------------------------------------------------------------*/
FoamFile
{
    version     2.0;
    format      ascii;
    class       volScalarField;
    location    "1680";
    object      p;
}
// * * * * * * * * * * * * * * * * * * * * * * * * * * * * * * * * * * * * * //

dimensions      [0 2 -2 0 0 0 0];

internalField   nonuniform List<scalar> 
8192
(
0.000618616938271
0.000447074263366
0.000361476610887
0.000317388550393
0.000292391783082
0.000277182522096
0.000267340884505
0.00026062129944
0.000255816439966
0.000252242190523
0.000249491298038
0.000247310048613
0.000245533801208
0.000244051831736
0.000242787354406
0.000241685710182
0.000240707118773
0.000239822074859
0.00023900833011
0.000238248857206
0.000237530440116
0.000236842674489
0.000236177242979
0.000235527378598
0.000234887458741
0.000234252691057
0.000233618864188
0.000232982143861
0.000232338900654
0.000231685559494
0.000231018462017
0.000230333735063
0.000229627160015
0.000228894038538
0.000228129051045
0.000227326104984
0.000226478170914
0.000225577105592
0.000224613462881
0.000223576295597
0.000222452954409
0.00022122889395
0.000219887501184
0.000218409966986
0.00021677522802
0.000214960012077
0.000212939024077
0.000210685310965
0.000208170838932
0.000205367304923
0.00020224718473
0.000198784994233
0.000194958711141
0.000190751277928
0.000186152086971
0.000181158339749
0.000175776171759
0.000170021440646
0.000163920082986
0.000157507957251
0.000150830111676
0.000143939454672
0.000136894865842
0.000129758867199
0.000122595064895
0.0001154656477
0.000108429247252
0.000101539377018
9.48435251376e-05
8.83828208243e-05
8.2192079383e-05
7.6300008959e-05
7.07294119228e-05
6.54972977595e-05
6.0614906654e-05
5.60877034715e-05
5.1915430767e-05
4.80923074631e-05
4.4607432036e-05
4.14454067294e-05
3.85871542122e-05
3.60108626339e-05
3.36929760467e-05
3.1609147185e-05
2.97350843872e-05
2.80472480793e-05
2.6523377184e-05
2.51428474818e-05
2.38868791014e-05
2.27386190088e-05
2.16831271538e-05
2.07072938688e-05
1.97997124942e-05
1.89505266991e-05
1.81512672335e-05
1.73946886777e-05
1.66746131948e-05
1.59857855722e-05
1.53237417677e-05
1.46846917469e-05
1.40654164177e-05
1.34631778682e-05
1.28756417654e-05
1.23008106087e-05
1.17369664997e-05
1.1182622117e-05
1.06364786877e-05
1.00973898418e-05
9.56433039022e-06
9.03636918605e-06
8.51264541573e-06
7.99234782207e-06
7.47469662907e-06
6.95892821822e-06
6.44428310702e-06
5.92999844967e-06
5.41530746227e-06
4.89945002322e-06
4.38170198861e-06
3.86143645765e-06
3.33824079311e-06
2.81213318916e-06
2.28396245779e-06
1.75615789509e-06
1.23418409677e-06
7.29522115494e-07
2.66999138144e-07
-2.95177137565e-08
0.000469696097742
0.000406189422143
0.000356516384158
0.000323886208432
0.00030198736265
0.000286827317245
0.000276026175832
0.000268118478138
0.000262178762989
0.000257608639402
0.000254012142101
0.000251121230338
0.000248750432583
0.000246768719009
0.000245081717725
0.000243620244172
0.00024233275154
0.000241180261253
0.000240132891605
0.000239167435445
0.000238265639043
0.000237412957724
0.00023659764091
0.000235810048068
0.00023504212849
0.000234287018469
0.000233538723195
0.000232791859144
0.000232041440294
0.000231282696067
0.0002305109102
0.000229721272816
0.00022890873977
0.000228067894483
0.00022719280849
0.000226276897897
0.000225312773992
0.000224292087471
0.000223205367301
0.000222041857274
0.00022078935585
0.000219434068208
0.000217960483355
0.000216351293681
0.000214587379132
0.000212647882578
0.000210510405889
0.000208151356538
0.000205546470344
0.000202671526311
0.000199503253416
0.000196020407957
0.000192204976156
0.000188043434742
0.000183527986275
0.000178657679081
0.00017343932264
0.000167888115327
0.000162027909072
0.000155891045851
0.000149517718392
0.000142954838708
0.000136254446037
0.000129471750097
0.000122662978017
0.000115883257949
0.000109184797023
0.000102615532313
9.62183177688e-05
9.00305846902e-05
8.40843140604e-05
7.84061463073e-05
7.3017497481e-05
6.79346186213e-05
6.31685994285e-05
5.8725363763e-05
5.46057263929e-05
5.08055781823e-05
4.73162445545e-05
4.4125028142e-05
4.12159105005e-05
3.8570359482e-05
3.61681740038e-05
3.39882983519e-05
3.20095504056e-05
3.02112272717e-05
2.85735718626e-05
2.70781012427e-05
2.57078097302e-05
2.44472667993e-05
2.32826323073e-05
2.22016109978e-05
2.11933656485e-05
2.02484048769e-05
1.93584580171e-05
1.85163462417e-05
1.77158562838e-05
1.69516209029e-05
1.62190085136e-05
1.55140231606e-05
1.48332151422e-05
1.41736020087e-05
1.35325992989e-05
1.29079601778e-05
1.22977230499e-05
1.17001662054e-05
1.11137686059e-05
1.05371759749e-05
9.9691714749e-06
9.40865035466e-06
8.854598112e-06
8.30607187597e-06
7.76218495879e-06
7.22209481304e-06
6.68499508475e-06
6.15011306084e-06
5.61671478474e-06
5.08412154431e-06
4.55174373824e-06
4.01914170216e-06
3.48612889957e-06
2.95294232656e-06
2.42052081896e-06
1.89095946796e-06
1.36825710374e-06
8.59598621312e-07
3.77054196963e-07
1.89287147562e-08
0.000386729843336
0.000364072313586
0.000338096565581
0.000316879286242
0.000300779965778
0.000288488049924
0.000278983267406
0.000271537581077
0.000265628809661
0.000260877733988
0.000257006121429
0.000253808034383
0.000251129757101
0.000248855564229
0.000246897556867
0.000245188364411
0.000243675875167
0.000242319407216
0.000241086904958
0.000239952869218
0.000238896814868
0.000237902110169
0.000236955094201
0.000236044398263
0.000235160417763
0.000234294895699
0.000233440589457
0.000232590998148
0.000231740135913
0.000230882339849
0.000230012101535
0.000229123914922
0.000228212134958
0.000227270842349
0.000226293710853
0.000225273874513
0.000224203793169
0.000223075115731
0.00022187854203
0.000220603685765
0.000219238943182
0.000217771374823
0.000216186610895
0.000214468794593
0.00021260058168
0.000210563218534
0.000208336723581
0.000205900197779
0.00020323228673
0.000200311809132
0.000197118552402
0.000193634217409
0.000189843472354
0.000185735055669
0.000181302853473
0.000176546872258
0.000171474030368
0.000166098699086
0.000160442930664
0.000154536317346
0.000148415436932
0.000142122864577
0.000135705770032
0.000129214175326
0.000122699015592
0.000116210216721
0.000109795048398
0.000103496925658
9.73547151961e-05
9.14024802181e-05
8.56694923282e-05
8.01803410324e-05
7.49550242233e-05
7.00089714684e-05
6.53530106299e-05
6.09933281075e-05
5.69314900206e-05
5.31645872889e-05
4.96855452255e-05
4.64836058664e-05
4.35449574011e-05
4.08534592717e-05
3.83913989065e-05
3.61402181038e-05
3.40811598095e-05
3.21958044e-05
3.04664828571e-05
2.88765693123e-05
2.74106654783e-05
2.60546949425e-05
2.47959268203e-05
2.36229473853e-05
2.25255958673e-05
2.14948777135e-05
2.05228655974e-05
1.96025958149e-05
1.8727965425e-05
1.78936337119e-05
1.70949301543e-05
1.63277700779e-05
1.55885784453e-05
1.48742217414e-05
1.41819476029e-05
1.35093316422e-05
1.28542308308e-05
1.22147427615e-05
1.15891701408e-05
1.09759898891e-05
1.03738263184e-05
9.78142792504e-06
9.19764747175e-06
8.62142514438e-06
8.0517747702e-06
7.48777327697e-06
6.92855390295e-06
6.37330403564e-06
5.82126915154e-06
5.27176506825e-06
4.72420185359e-06
4.17812424806e-06
3.63327573504e-06
3.08969665792e-06
2.54787190063e-06
2.00895104287e-06
1.47507208141e-06
9.4975380784e-07
4.37619751951e-07
3.22865321849e-08
0.00034215448123
0.000333779363852
0.00031960260312
0.00030582660185
0.000294413707994
0.000285152402723
0.000277589631719
0.000271357038765
0.000266176468074
0.000261835367221
0.000258167985917
0.000255043253268
0.000252356695868
0.000250024659872
0.000247979945712
0.000246168407047
0.000244546265524
0.000243077981603
0.000241734564998
0.000240492233764
0.000239331349202
0.000238235568166
0.000237191166108
0.000236186493856
0.000235211538873
0.000234257567954
0.000233316833963
0.00023238232928
0.000231447577737
0.000230506456747
0.00022955303971
0.00022858145357
0.000227585746979
0.000226559765206
0.000225497028733
0.000224390613248
0.000223233029523
0.000222016102552
0.000220730850398
0.000219367364574
0.000217914695502
0.000216360748882
0.000214692201564
0.000212894448913
0.000210951599477
0.000208846536732
0.000206561070977
0.000204076206202
0.000201372545169
0.000198430849572
0.00019523275959
0.000191761658591
0.000188003646406
0.000183948563487
0.0001795909939
0.000174931171641
0.000169975720716
0.000164738168712
0.000159239179164
0.00015350644951
0.000147574226217
0.000141482406535
0.000135275231148
0.000128999624248
0.000122703308557
0.000116432913539
0.000110232377853
0.000104141840789
9.81970769625e-05
9.24293860164e-05
8.68657202512e-05
8.15288587065e-05
7.64375121266e-05
7.16063233362e-05
6.70457882064e-05
6.27621598985e-05
5.87574131863e-05
5.50293379224e-05
5.15718050462e-05
4.83752126019e-05
4.54270827037e-05
4.27127533571e-05
4.02160975025e-05
3.79202061356e-05
3.58079879661e-05
3.38626583174e-05
3.20681088506e-05
3.04091640526e-05
2.8871739143e-05
2.74429179597e-05
2.61109696988e-05
2.48653216561e-05
2.36965023353e-05
2.25960663304e-05
2.15565095782e-05
2.05711812175e-05
1.96341963443e-05
1.87403524848e-05
1.78850514837e-05
1.70642277121e-05
1.62742829334e-05
1.55120277912e-05
1.47746296379e-05
1.40595662806e-05
1.33645851473e-05
1.26876673473e-05
1.20269961171e-05
1.13809291658e-05
1.07479744943e-05
1.01267693187e-05
9.51606180968e-06
8.91469544662e-06
8.32159589553e-06
7.73576044473e-06
7.15625020183e-06
6.58218545062e-06
6.0127448481e-06
5.44716949352e-06
4.88477342912e-06
4.32496288306e-06
3.76726777389e-06
3.21139087206e-06
2.6572826598e-06
2.1052511598e-06
1.55609852868e-06
1.01114425311e-06
4.7136409063e-07
3.45346719436e-08
0.000314513621227
0.000312560360079
0.000304776093865
0.000295597070804
0.000287328063302
0.00028030625778
0.000274374586779
0.000269327708584
0.000264997291567
0.000261253677627
0.000257995619047
0.000255141882059
0.000252625849113
0.000250392139957
0.000248394377163
0.000246593578776
0.000244956911381
0.0002434566734
0.000242069444561
0.000240775367078
0.00023955753674
0.000238401487518
0.000237294755855
0.000236226512453
0.000235187250709
0.000234168522159
0.000233162711837
0.000232162841429
0.000231162399305
0.000230155192692
0.000229135213292
0.000228096514186
0.000227033094773
0.000225938790908
0.000224807167891
0.000223631414446
0.000222404236346
0.00022111774897
0.000219763368887
0.000218331705593
0.000216812455966
0.000215194305922
0.000213464846251
0.000211610512882
0.000209616565687
0.000207467124402
0.000205145284467
0.000202633338743
0.000199913131256
0.000196966564277
0.000193776268212
0.000190326424396
0.000186603706118
0.000182598278973
0.000178304785634
0.00017372323811
0.000168859751011
0.000163727062666
0.000158344795831
0.000152739404505
0.000146943749587
0.000140996258383
0.000134939654916
0.000128819297686
0.000122681237631
0.000116570232322
0.000110528098192
0.000104592647329
9.87972649134e-05
9.31709952939e-05
8.77388390863e-05
8.25220292994e-05
7.7538168407e-05
7.28012068131e-05
6.83213077086e-05
6.41046800025e-05
6.01534726863e-05
5.64658121308e-05
5.30360324414e-05
4.98551062743e-05
4.69112407572e-05
4.41905725936e-05
4.16778853688e-05
3.93572802121e-05
3.72127513925e-05
3.52286425031e-05
3.3389979708e-05
3.16826929079e-05
3.00937432445e-05
2.86111776558e-05
2.72241300343e-05
2.59227856959e-05
2.46983224501e-05
2.35428383032e-05
2.24492730206e-05
2.141132854e-05
2.04233915121e-05
1.94804599967e-05
1.85780754451e-05
1.77122604866e-05
1.68794626207e-05
1.60765036537e-05
1.53005345576e-05
1.45489953384e-05
1.38195794643e-05
1.31102023969e-05
1.24189737858e-05
1.17441729131e-05
1.10842270206e-05
1.04376921874e-05
9.8032364867e-06
9.17962519491e-06
8.56570789595e-06
7.96040738487e-06
7.36271036912e-06
6.771660066e-06
6.1863509598e-06
5.60592620251e-06
5.02957851565e-06
4.45655601709e-06
3.88617527251e-06
3.31784487788e-06
2.75110285397e-06
2.18566428076e-06
1.62143900768e-06
1.05833532993e-06
4.95284780943e-07
3.50278743841e-08
0.000296146731742
0.0002970605096
0.000293034353017
0.000286913381425
0.000280829933799
0.000275405987754
0.000270692109192
0.000266593384645
0.00026300319219
0.000259833020642
0.00025701348232
0.000254489753021
0.000252217370517
0.000250159333267
0.000248284248873
0.000246565150853
0.000244978703643
0.000243504626201
0.000242125240775
0.00024082509823
0.000239590655368
0.000238409991789
0.000237272559485
0.000236168960818
0.000235090751546
0.000234030265945
0.000232980462201
0.000231934780092
0.000230887014274
0.000229831201826
0.000228761515973
0.000227672166491
0.000226557304655
0.000225410930866
0.000224226803248
0.000222998345784
0.000221718554808
0.000220379903066
0.000218974241085
0.000217492696357
0.000215925572003
0.00021426224817
0.00021249109178
0.000210599383379
0.000208573273992
0.000206397789947
0.000204056909122
0.000201533737001
0.000198810813236
0.000195870576452
0.000192696003732
0.000189271420104
0.000185583444276
0.000181622007155
0.000177381360154
0.00017286099003
0.000168066374465
0.000163009533138
0.000157709333965
0.000152191499384
0.000146488241701
0.000140637463323
0.000134681489018
0.000128665341869
0.000122634651561
0.000116633454375
0.000110702394049
0.000104877667808
9.91907805274e-05
9.36688943906e-05
8.8335350809e-05
8.32100762289e-05
7.83097561456e-05
7.36477820954e-05
6.92340429204e-05
6.50746670965e-05
6.11718322577e-05
5.75237410733e-05
5.41248234335e-05
5.09661721805e-05
4.80361671889e-05
4.53212063433e-05
4.28064514057e-05
4.04765103863e-05
3.8316005625e-05
3.63100066196e-05
3.44443303846e-05
3.27057267716e-05
3.10819723868e-05
2.95618970682e-05
2.81353639083e-05
2.67932196101e-05
2.55272277156e-05
2.43299936016e-05
2.31948872303e-05
2.21159675024e-05
2.10879105116e-05
2.01059429526e-05
1.91657812268e-05
1.82635763428e-05
1.73958644281e-05
1.65595225125e-05
1.57517291564e-05
1.49699294701e-05
1.42118040654e-05
1.34752414999e-05
1.27583138031e-05
1.20592547067e-05
1.13764402364e-05
1.07083713603e-05
1.00536584224e-05
9.41100712833e-06
8.77920588456e-06
8.15711433777e-06
7.54365301386e-06
6.93779403106e-06
6.33855297828e-06
5.74498222216e-06
5.15616617193e-06
4.57121936843e-06
3.98928854432e-06
3.40955936876e-06
2.83126524117e-06
2.25368226005e-06
1.67605183355e-06
1.09726123513e-06
5.14939367919e-07
3.59176070776e-08
0.000283252125925
0.000285397921117
0.000283617959902
0.000279613565823
0.000275136064281
0.000270902876668
0.000267103727128
0.000263733280159
0.000260734380631
0.000258046762582
0.000255619530665
0.000253411975088
0.000251391524594
0.000249531579851
0.00024780986906
0.000246207327021
0.000244707356142
0.000243295334527
0.000241958274686
0.000240684571582
0.00023946380373
0.000238286566744
0.000237144328071
0.000236029296792
0.000234934305129
0.000233852700203
0.000232778243851
0.000231705016598
0.000230627328904
0.000229539640813
0.000228436482411
0.000227312376977
0.000226161765497
0.000224978931336
0.000223757923819
0.000222492479588
0.000221175940646
0.000219801168172
0.000218360451518
0.000216845412273
0.00021524690418
0.000213554911017
0.000211758446699
0.000209845464962
0.000207802790399
0.000205616088452
0.000203269898906
0.000200747764584
0.00019803249197
0.00019510658
0.000191952842754
0.000188555228221
0.000184899799895
0.000180975809633
0.000176776764727
0.000172301393799
0.000167554444708
0.000162547280617
0.000157298246623
0.000151832749952
0.000146182962324
0.00014038705488
0.000134487911714
0.000128531301757
0.000122563550401
0.000116628987302
0.000110767870928
0.000105015310816
9.94012645995e-05
9.39512501139e-05
8.86871588672e-05
8.36278138125e-05
7.87891748505e-05
7.41842352287e-05
6.98227134387e-05
6.57106787787e-05
6.18502560334e-05
5.82395315472e-05
5.48727336905e-05
5.17406943528e-05
4.88315317521e-05
4.61314503742e-05
4.36255443671e-05
4.12985126022e-05
3.91352315715e-05
3.71211700034e-05
3.52426565729e-05
3.34870268086e-05
3.18426795608e-05
3.02990711296e-05
2.88466699226e-05
2.74768886752e-05
2.6182006081e-05
2.49550855788e-05
2.37898960569e-05
2.26808371671e-05
2.16228705848e-05
2.06114576944e-05
1.96425036609e-05
1.87123075609e-05
1.78175180949e-05
1.69550943433e-05
1.6122271019e-05
1.53165276936e-05
1.45355615058e-05
1.37772629068e-05
1.30396940381e-05
1.23210693797e-05
1.16197383444e-05
1.09341695265e-05
1.02629363456e-05
9.60470385263e-06
8.95821649488e-06
8.32228666396e-06
7.69578389389e-06
7.0776246248e-06
6.4667625234e-06
5.86217944267e-06
5.26287719071e-06
4.66787025015e-06
4.07617911292e-06
3.48682202748e-06
2.89879722889e-06
2.31103213709e-06
1.72223865059e-06
1.13054462383e-06
5.32724260712e-07
3.82690899312e-08
0.000273786568622
0.000276400339265
0.000275971210913
0.000273450460098
0.000270189076065
0.000266882842342
0.000263797735701
0.000260996453614
0.000258464961069
0.000256167907811
0.000254069076923
0.000252137312343
0.000250347163735
0.000248677967298
0.000247112708062
0.000245637068891
0.000244238730676
0.000242906883542
0.00024163189029
0.000240405051802
0.000239218437909
0.000238064759287
0.00023693726486
0.000235829655148
0.000234736005788
0.000233650699261
0.000232568358765
0.000231483784463
0.000230391892801
0.000229287660416
0.000228166066126
0.000227022032936
0.000225850369167
0.000224645707788
0.000223402442972
0.000222114662835
0.000220776077258
0.000219379939711
0.000217918962071
0.000216385221728
0.000214770060822
0.00021306397856
0.000211256519418
0.000209336163085
0.000207290226636
0.000205104796077
0.000202764713046
0.000200253652266
0.000197554333976
0.00019464891848
0.000191519621056
0.00018814955897
0.00018452379819
0.000180630516265
0.000176462162317
0.000172016498829
0.000167297455517
0.00016231577976
0.000157089478227
0.000151643991719
0.000146011980726
0.000140232597091
0.000134350170075
0.000128412249993
0.000122466958489
0.000116559906254
0.000110731664696
0.00010501663006
9.94433810199e-05
9.4035901336e-05
8.88147667939e-05
8.37978688086e-05
7.9000634147e-05
7.44358420831e-05
7.01131822982e-05
6.60387293762e-05
6.22145162741e-05
5.86383584034e-05
5.53040183434e-05
5.22017167685e-05
4.93189090762e-05
4.66411911726e-05
4.41531906503e-05
4.18393340522e-05
3.96844335553e-05
3.76740845819e-05
3.57948976132e-05
3.40346016559e-05
3.23820580708e-05
3.08272177668e-05
2.93610466804e-05
2.79754367476e-05
2.66631133282e-05
2.54175455342e-05
2.42328628594e-05
2.31037795927e-05
2.20255273449e-05
2.09937953927e-05
2.00046782179e-05
1.90546295008e-05
1.81404217973e-05
1.72591111728e-05
1.6408006121e-05
1.55846401717e-05
1.47867476595e-05
1.40122421918e-05
1.32591974125e-05
1.25258297075e-05
1.181048254e-05
1.11116121408e-05
1.04277743043e-05
9.75761207011e-06
9.09984408866e-06
8.45325349225e-06
7.81667711324e-06
7.18899491176e-06
6.56911948778e-06
5.95598552947e-06
5.34853892152e-06
4.74572482186e-06
4.1464728823e-06
3.54967494235e-06
2.95414381576e-06
2.35852713127e-06
1.76112257487e-06
1.15950575919e-06
5.49893837644e-07
4.2693800945e-08
0.000266585067151
0.000269311879475
0.000269694163955
0.000268217377406
0.000265887689142
0.000263322176253
0.000260814564365
0.000258472838074
0.00025631819772
0.000254337933548
0.000252509497826
0.000250810077958
0.000249219692758
0.000247721682031
0.000246302299161
0.000244950102707
0.000243655397277
0.000242409790267
0.000241205862458
0.000240036929962
0.000238896873024
0.000237780011274
0.000236681010168
0.000235594807871
0.000234516555192
0.000233441566438
0.000232365270272
0.000231283164318
0.000230190772612
0.000229083605043
0.00022795711441
0.000226806652188
0.00022562742216
0.00022441443109
0.000223162435476
0.000221865883299
0.000220518849584
0.000219114964387
0.000217647331811
0.000216108438621
0.000214490051376
0.000212783101701
0.000210977560917
0.000209062308079
0.00020702500031
0.000204851961719
0.000202528117726
0.000200037014674
0.000197360977832
0.000194481468835
0.000191379697583
0.000188037514354
0.000184438552103
0.000180569518961
0.000176421489051
0.000171991044406
0.00016728119261
0.00016230207459
0.00015707149665
0.000151615230595
0.000145966909637
0.000140167343881
0.000134263179534
0.000128304817383
0.000122343366659
0.000116426786002
0.00011059662957
0.000104886813353
9.93245373987e-05
9.39322409799e-05
8.87292585403e-05
8.37327042163e-05
7.89576729187e-05
7.44169403068e-05
7.0120342681e-05
6.60740569643e-05
6.22800095527e-05
5.873560223e-05
5.54338675977e-05
5.23640585298e-05
4.9512561777e-05
4.68639534481e-05
4.44020115057e-05
4.21105539906e-05
3.99740450414e-05
3.79779723644e-05
3.61090359836e-05
3.43552003668e-05
3.27056587281e-05
3.11507479674e-05
2.96818411401e-05
2.82912344692e-05
2.69720386168e-05
2.57180790486e-05
2.45238073341e-05
2.33842235169e-05
2.22948088304e-05
2.12514676523e-05
2.0250477502e-05
1.92884459278e-05
1.83622732405e-05
1.74691201829e-05
1.6606379752e-05
1.57716525092e-05
1.49627248167e-05
1.41775495238e-05
1.34142286985e-05
1.26709980594e-05
1.19462128064e-05
1.12383345907e-05
1.05459193869e-05
9.86760605945e-06
9.20210542437e-06
8.54818961998e-06
7.90468159768e-06
7.27044452465e-06
6.64437083098e-06
6.02537049113e-06
5.41235779845e-06
4.80423516276e-06
4.19987088531e-06
3.59806457009e-06
2.9974872286e-06
2.3965710482e-06
1.79330575702e-06
1.18488519665e-06
5.67179088145e-07
4.95912758591e-08
0.000260951080151
0.000263629891018
0.000264495261888
0.00026375340338
0.000262139491725
0.000260172942751
0.000258143292877
0.000256183668312
0.000254341378138
0.000252623104747
0.000251019048997
0.000249514415298
0.000248094296006
0.000246745410876
0.000245456468389
0.000244217991891
0.000243021987923
0.000241861611511
0.000240730881782
0.000239624457956
0.000238537469274
0.000237465387779
0.000236403933064
0.00023534899985
0.000234296601159
0.000233242825419
0.000232183794335
0.000231115624489
0.000230034395505
0.000228936117721
0.000227816698457
0.000226671906607
0.000225497334694
0.000224288357428
0.000223040085723
0.000221747314987
0.000220404466257
0.000219005518536
0.000217543930398
0.00021601254875
0.000214403502579
0.00021270807991
0.000210916587321
0.000209018193933
0.000207000766547
0.000204850710795
0.000202552845568
0.000200090354942
0.00019744488094
0.000194596835562
0.000191526009832
0.000188212526375
0.000184638111534
0.00018078756573
0.000176650231869
0.000172221264052
0.000167502609776
0.000162503768799
0.000157242432427
0.00015174495578
0.000146046407347
0.000140189935091
0.000134225402219
0.000128207230251
0.000122190918318
0.000116228048488
0.000110361858389
0.000104625861735
9.90456904021e-05
9.36421140903e-05
8.84332629171e-05
8.3435628319e-05
7.86641931328e-05
7.41319695484e-05
6.98491471228e-05
6.58221245547e-05
6.20527130758e-05
5.85377438744e-05
5.5269222316e-05
5.22350337376e-05
4.942004966e-05
4.68073873521e-05
4.43795820717e-05
4.21195141832e-05
4.00110356954e-05
3.80393190695e-05
3.61909910109e-05
3.44541219874e-05
3.28181321007e-05
3.12736574962e-05
2.98124057233e-05
2.84270162384e-05
2.71109339318e-05
2.58582984842e-05
2.46638495492e-05
2.35228464045e-05
2.24310001953e-05
2.13844168398e-05
2.03795488087e-05
1.94131542338e-05
1.84822620382e-05
1.75841420112e-05
1.67162789439e-05
1.58763501046e-05
1.50622054613e-05
1.42718501688e-05
1.35034289144e-05
1.27552117876e-05
1.20255813837e-05
1.13130208946e-05
1.06161029629e-05
9.93347909682e-06
9.26386944842e-06
8.60605275369e-06
7.95885620474e-06
7.32114496555e-06
6.69181091434e-06
6.06975994758e-06
5.45389669171e-06
4.84310452863e-06
4.23621704459e-06
3.63197368226e-06
3.02894652213e-06
2.4254159949e-06
1.81916277263e-06
1.20714151074e-06
5.85034137818e-07
5.92235051477e-08
0.00025644956859
0.000259011479325
0.000260158095645
0.000259933009572
0.000258868485864
0.00025738796445
0.000255758660272
0.000254123269245
0.000252546338103
0.00025104992102
0.000249635495162
0.00024829587155
0.000247021109147
0.000245801183781
0.000244627020821
0.000243490757331
0.000242385674338
0.000241306012477
0.000240246767757
0.000239203506659
0.000238172212633
0.000237149164113
0.000236130839588
0.00023511384415
0.000234094852296
0.000233070564874
0.000232037669776
0.000230992804234
0.000229932528158
0.000228853295418
0.000227751424856
0.000226623069833
0.000225464185266
0.000224270491062
0.000223037430784
0.000221760124148
0.000220433311734
0.000219051289893
0.000217607833419
0.000216096103082
0.000214508534748
0.000212836706697
0.000211071182396
0.000209201327966
0.000207215108184
0.000205098873414
0.000202837164284
0.000200412582168
0.000197805800187
0.000194995814622
0.000191960545064
0.000188677860927
0.000185127023589
0.000181290396943
0.000177155156056
0.000172714715631
0.000167969768022
0.000162929071669
0.000157610216366
0.000152040342422
0.00014625641457
0.000140304635596
0.000134239045008
0.000128119415937
0.000122007409498
0.00011595990363
0.00011002262018
0.000104228543961
9.8601314425e-05
9.31598030505e-05
8.79209695749e-05
8.29008573161e-05
7.8114581077e-05
7.3575659184e-05
6.92948650487e-05
6.52789456953e-05
6.1529571781e-05
5.8042801684e-05
5.48092451227e-05
5.18149360787e-05
4.90427055389e-05
4.64737142655e-05
4.40888293206e-05
4.1869656071e-05
3.979918008e-05
3.78620715422e-05
3.60447462963e-05
3.43352774428e-05
3.27232315616e-05
3.11994792056e-05
2.9756008687e-05
2.83857575394e-05
2.70824669232e-05
2.58405592033e-05
2.46550365272e-05
2.35213973596e-05
2.24355678711e-05
2.1393845379e-05
2.03928514699e-05
1.94294928669e-05
1.85009284886e-05
1.76045414706e-05
1.67379151766e-05
1.58988124304e-05
1.50851573568e-05
1.42950193413e-05
1.35265987101e-05
1.27782138025e-05
1.20482891618e-05
1.13353446056e-05
1.06379849649e-05
9.95489029245e-06
9.2848063389e-06
8.62653507654e-06
7.97892499827e-06
7.34086082258e-06
6.7112520521e-06
6.08901950364e-06
5.47307833485e-06
4.86231504095e-06
4.25555405731e-06
3.65150650915e-06
3.04868880541e-06
2.44529231857e-06
1.83897990967e-06
1.22658861405e-06
6.03743518193e-07
7.1744287299e-08
0.000252797419368
0.000255216996524
0.000256519445126
0.000256656611762
0.000256012775368
0.000254926370061
0.000253633933368
0.000252276922359
0.000250929520649
0.00024962498015
0.00024837413771
0.000247176690019
0.000246027465407
0.000244919664301
0.000243846399253
0.000242801334179
0.000241778872815
0.000240774138368
0.000239782869247
0.000238801292153
0.000237826000312
0.00023685384751
0.000235881860309
0.000234907167048
0.000233926942139
0.000232938361374
0.000231938563259
0.000230924611864
0.000229893470768
0.000228841975835
0.000227766808187
0.000226664466062
0.000225531234368
0.000224363150725
0.000223155966664
0.000221905102432
0.000220605593526
0.000219252026583
0.000217838461667
0.000216358337227
0.000214804353253
0.000213168327494
0.000211441019546
0.000209611918884
0.000207668996866
0.000205598431412
0.000203384329149
0.000201008495782
0.000198450341347
0.000195687046126
0.00019269413646
0.000189446594549
0.000185920518182
0.000182095154689
0.000177954938496
0.000173491125003
0.000168702862164
0.000163597961376
0.00015819380931
0.000152518458145
0.000146611246962
0.000140522234336
0.000134310676572
0.000128043233491
0.000121790105164
0.000115615844681
0.00010956965283
0.000103683545175
9.79784375151e-05
9.24710006326e-05
8.7177109433e-05
8.21125677688e-05
7.72928816243e-05
7.2732360987e-05
6.84425966445e-05
6.44307885125e-05
6.06983897182e-05
5.72403969212e-05
5.40455365773e-05
5.10973743006e-05
4.83760541559e-05
4.58601934417e-05
4.35285144801e-05
4.13609928661e-05
3.93394997546e-05
3.74480362858e-05
3.56726964073e-05
3.40014804817e-05
3.24240480164e-05
3.09314636783e-05
2.95159646546e-05
2.81707605484e-05
2.68898674403e-05
2.56679731297e-05
2.45003288288e-05
2.33826623947e-05
2.23111086692e-05
2.12821532322e-05
2.02925866031e-05
1.93394665781e-05
1.84200869135e-05
1.75319509882e-05
1.66727493932e-05
1.58403406423e-05
1.50327343751e-05
1.42480765617e-05
1.34846363189e-05
1.274079402e-05
1.20150304357e-05
1.13059166816e-05
1.06121047652e-05
9.93231854147e-06
9.26534486584e-06
8.61002470853e-06
7.9652439175e-06
7.32992319355e-06
6.70300661502e-06
6.08344766931e-06
5.47019109959e-06
4.86214779792e-06
4.25815822077e-06
3.6569370889e-06
3.05698831346e-06
2.45647474276e-06
1.85302490473e-06
1.24346387755e-06
6.23473613488e-07
8.72120003373e-08
0.000249803052145
0.000252074894086
0.000253454361353
0.00025384386025
0.000253521164289
0.000252753536881
0.000251744647971
0.00025062795453
0.00024948134228
0.000248345418863
0.000247238292219
0.000246165569273
0.00024512647257
0.000244117327519
0.000243133429753
0.000242169973186
0.00024122245873
0.000240286829479
0.000239359470826
0.000238437150861
0.000237516940387
0.000236596131878
0.000235672165836
0.000234742567245
0.00023380489454
0.000232856695853
0.000231895469806
0.00023091863055
0.000229923480835
0.000228907185287
0.000227866744035
0.000226798965433
0.000225700436667
0.000224567490924
0.000223396169699
0.00022218217852
0.000220920833974
0.000219606999297
0.000218235005018
0.000216798550092
0.000215290577732
0.000213703118909
0.000212027095507
0.000210252075401
0.00020836597455
0.00020635470941
0.000204201820146
0.000201888115866
0.000199391439936
0.000196686711416
0.000193746445688
0.000190541947382
0.000187045241827
0.00018323154426
0.000179081755564
0.00017458437094
0.000169736543758
0.000164544748474
0.000159025860228
0.000153208829132
0.000147135879441
0.000140861889872
0.000134452472785
0.000127982912015
0.000121535305094
0.000115185518179
0.000108987561973
0.000102971510615
9.71544166781e-05
9.15504481147e-05
8.61746177838e-05
8.10427197819e-05
7.61708785109e-05
7.15744533665e-05
6.72660374551e-05
6.32533088771e-05
5.95373188047e-05
5.61115686213e-05
5.29622321849e-05
5.00695965379e-05
4.74103043755e-05
4.49597247397e-05
4.26938959929e-05
4.05907917308e-05
3.86309332334e-05
3.67975144326e-05
3.50762314576e-05
3.34549724635e-05
3.19234702582e-05
3.0472974178e-05
2.90959659346e-05
2.77859255343e-05
2.65371440203e-05
2.53445760724e-05
2.42037247859e-05
2.31105516337e-05
2.20614057749e-05
2.10529680912e-05
2.00822063952e-05
1.91463391277e-05
1.82428055358e-05
1.73692408338e-05