/*--------------------------------*- C++ -*----------------------------------*\
  =========                 |
  \\      /  F ield         | OpenFOAM: The Open Source CFD Toolbox
   \\    /   O peration     | Website:  https://openfoam.org
    \\  /    A nd           | Version:  7
     \\/     M anipulation  |
\*---------------------------------------------------------------------------*/
FoamFile
{
    version     2.0;
    format      ascii;
    class       surfaceScalarField;
    location    "1680";
    object      phi;
}
// * * * * * * * * * * * * * * * * * * * * * * * * * * * * * * * * * * * * * //

dimensions      [0 3 -1 0 0 0 0];

internalField   nonuniform List<scalar> 
16192
(
6.92913642915e-10
2.44586357085e-10
4.93544331617e-10
1.99369310122e-10
3.64802520593e-10
1.28741809891e-10
2.82220171862e-10
8.25823476606e-11
2.27600157229e-10
5.46200135651e-11
1.89997590598e-10
3.76025655616e-11
1.63068507399e-10
2.69290821299e-11
1.43099076212e-10
1.99694301209e-11
1.27854090483e-10
1.52449846667e-11
1.1594044704e-10
1.19136423881e-11
1.06457283451e-10
9.4831625444e-12
9.88008363844e-11
7.65644603759e-12
9.25528966012e-11
6.24793877399e-12
8.741515137e-11
5.1377442465e-12
8.31693124674e-11
4.24583794731e-12
7.96521358611e-11
3.51717568491e-12
7.67392947809e-11
2.91284019773e-12
7.43346720096e-11
2.40462193256e-12
7.23630645864e-11
1.97160663354e-12
7.07650958053e-11
1.59796804594e-12
6.94935913581e-11
1.27150377253e-12
6.85109496069e-11
9.82641143276e-13
6.77872015701e-11
7.23747502249e-13
6.72985590294e-11
4.8864208687e-13
6.70263144466e-11
2.722442167e-13
6.69559986872e-11
7.03154896374e-14
6.7076730446e-11
-1.20731925011e-13
6.73807091591e-11
-3.03978766212e-13
6.78628165619e-11
-4.82107335433e-13
6.85203021053e-11
-6.57485345685e-13
6.93525314619e-11
-8.32229021667e-13
7.03607812701e-11
-1.00824932583e-12
7.15480658626e-11
-1.18728395728e-12
7.29189830777e-11
-1.37091641699e-12
7.44795664974e-11
-1.56058245595e-12
7.62371310509e-11
-1.75756341509e-12
7.82000976811e-11
-1.96296531748e-12
8.03777812038e-11
-2.17768202888e-12
8.27801233632e-11
-2.40234048933e-12
8.54173511818e-11
-2.63722596811e-12
8.82995389748e-11
-2.88218577274e-12
9.14360521421e-11
-3.13651097705e-12
9.4834852398e-11
-3.39879791306e-12
9.85016494048e-11
-3.6667945159e-12
1.02438893415e-10
-3.93724139705e-12
1.06644619559e-10
-4.20572341975e-12
1.11111176441e-10
-4.46655408267e-12
1.15823899949e-10
-4.71272065031e-12
1.2075982373e-10
-4.93592091254e-12
1.2588654673e-10
-5.12672014469e-12
1.31161397238e-10
-5.27484772157e-12
1.36531036481e-10
-5.36963655214e-12
1.41931627026e-10
-5.40058800567e-12
1.47289654676e-10
-5.35802528449e-12
1.52523442377e-10
-5.2337855562e-12
1.57545342627e-10
-5.02189832981e-12
1.62264546604e-10
-4.71920231013e-12
1.66590405392e-10
-4.32585735882e-12
1.70436112119e-10
-3.84570554497e-12
1.73722538114e-10
-3.28642503062e-12
1.76381950606e-10
-2.65941175184e-12
1.78361279679e-10
-1.97932853161e-12
1.79624570309e-10
-1.2632903057e-12
1.80154284793e-10
-5.29714365429e-13
1.79951241899e-10
2.0304277598e-13
1.79033206967e-10
9.18034579264e-13
1.77432441887e-10
1.60076445905e-12
1.75192721562e-10
2.23971944067e-12
1.72366371142e-10
2.82634924572e-12
1.69011750702e-10
3.354618986e-12
1.65191365477e-10
3.82038347165e-12
1.60970543707e-10
4.22081973644e-12
1.56416476462e-10
4.55406492015e-12
1.51597372866e-10
4.81910101123e-12
1.46581525864e-10
5.01584416164e-12
1.41436175752e-10
5.1453470604e-12
1.3622616551e-10
5.21000699927e-12
1.31012477063e-10
5.21368507107e-12
1.2585079831e-10
5.16167527123e-12
1.20790288393e-10
5.06050638939e-12
1.15872682633e-10
4.91760221665e-12
1.11131822839e-10
4.74085628821e-12
1.06593630058e-10
4.53818933952e-12
1.02276475328e-10
4.31715139574e-12
9.81918607739e-11
4.08461134518e-12
9.43453043117e-11
3.84655341045e-12
9.07373225537e-11
3.60797887241e-12
8.73644228264e-11
3.37289702834e-12
8.42200380301e-11
3.1443822852e-12
8.12953622757e-11
2.92467344167e-12
7.8580065953e-11
2.71529420373e-12
7.60628851477e-11
2.51717888251e-12
7.37320911008e-11
2.33079231174e-12
7.157585202e-11
2.1562375299e-12
6.9582502448e-11
1.99334819442e-12
6.77407361253e-11
1.84176511124e-12
6.60397373354e-11
1.70099773277e-12
6.44692641287e-11
1.57047229421e-12
6.30196947785e-11
1.44956857108e-12
6.16820468484e-11
1.33764727334e-12
6.04479763647e-11
1.23406993898e-12
5.93097629556e-11
1.13821296515e-12
5.826028544e-11
1.04947716365e-12
5.72929911845e-11
9.67293984404e-13
5.64018616446e-11
8.91129342395e-13
5.55813757106e-11
8.20485799751e-13
5.48264719086e-11
7.54903725249e-13
5.41325099365e-11
6.93961943062e-13
5.34952316187e-11
6.37278332235e-13
5.29107208658e-11
5.84510801727e-13
5.23753618483e-11
5.35359097946e-13
5.18857939985e-11
4.89567953418e-13
5.1438861892e-11
4.46932231529e-13
5.10315571071e-11
4.0730492369e-13
5.06609480351e-11
3.70609223806e-13
5.03240917468e-11
3.36856445835e-13
5.00179194373e-11
3.0617247293e-13
4.97390827028e-11
2.78836896778e-13
4.9483741324e-11
2.55341540181e-13
4.92472621205e-11
2.3647935674e-13
4.90237800727e-11
2.23482192166e-13
4.88055417276e-11
2.1823847242e-13
4.85819006541e-11
2.23641183062e-13
4.83377651235e-11
2.4413561508e-13
4.80512608353e-11
2.86504350921e-13
4.76907580874e-11
3.60502787041e-13
4.72139427827e-11
4.76815321083e-13
6.1177931014e-13
9.53398955792e-10
2.28687400147e-10
8.59622649092e-10
2.93145614595e-10
7.45069120568e-10
2.43295336272e-10
6.41886850835e-10
1.8576461531e-10
5.56703914556e-10
1.39802947761e-10
4.88317586464e-10
1.05988891573e-10
4.33704898099e-10
8.15417684186e-11
3.89912056398e-10
6.37622697538e-11
3.5452453286e-10
5.06325061506e-11
3.25684940479e-10
4.07532327363e-11
3.01993196742e-10
3.31749042772e-11
2.82396747182e-10
2.72528936325e-11
2.66099839926e-10
2.25448441128e-11
2.52495201112e-10
1.8742381199e-11
2.41114398802e-10
1.56266384615e-11
2.31592210625e-10
1.30393621414e-11
2.23641046433e-10
1.08640027546e-11
2.17032476389e-10
9.01319043562e-12
2.11583766019e-10
7.42031556877e-12
2.07147954353e-10
6.03377839364e-12
2.03606459629e-10
4.81299730778e-12
2.0086350652e-10
3.72559320708e-12
1.98841880863e-10
2.74537226918e-12
1.9747966306e-10
1.85085917064e-12
1.96727691114e-10
1.02421562964e-12
1.96547573349e-10
2.50432924873e-13
1.96910118889e-10
-4.83277577675e-13
1.97794086433e-10
-1.18794618652e-12
1.99185177294e-10
-1.87319782215e-12
2.01075216148e-10
-2.54752355563e-12
2.03461471963e-10
-3.21848390827e-12
2.06346079648e-10
-3.8928557824e-12
2.09735527809e-10
-4.57673057641e-12
2.13640180538e-10
-5.27556727759e-12
2.18073801731e-10
-5.99420144397e-12
2.23053049576e-10
-6.73680870995e-12
2.2859690678e-10
-7.50681962373e-12
2.34726009376e-10
-8.30678137553e-12
2.41461833912e-10
-9.13816143023e-12
2.48825700556e-10
-1.00010886765e-11
2.56837548901e-10
-1.08940298578e-11
2.65514446e-10
-1.18134035062e-11
2.74868793869e-10
-1.27531409327e-11
2.84906219181e-10
-1.37042147248e-11
2.95623152757e-10
-1.46541696621e-11
3.07004143168e-10
-1.55867083542e-11
3.19018996576e-10
-1.64814019117e-11
3.31619892307e-10
-1.73136107582e-11
3.44738683406e-10
-1.80547064232e-11
3.58284644437e-10
-1.86726756926e-11
3.72142960986e-10
-1.91331589827e-11
3.86174255155e-10
-1.94009256993e-11
4.00215399938e-10
-1.94417281132e-11
4.14081795865e-10
-1.92244169392e-11
4.27571176631e-10
-1.87231625051e-11
4.40468895788e-10
-1.79196141447e-11
4.525545368e-10
-1.6804840474e-11
4.63609586968e-10
-1.53809051552e-11
4.734258113e-10
-1.36619279744e-11
4.81813847935e-10
-1.16744602034e-11
4.88611427086e-10
-9.4569898761e-12
4.93690519725e-10
-7.05842056664e-12
4.96962691947e-10
-4.53546236349e-12
4.98382028682e-10
-1.94905138892e-12
4.97945242993e-10
6.39827689167e-13
4.95689018429e-10
3.17425786294e-12
4.91685162954e-10
5.60461811501e-12
4.86034529926e-10
7.89035010446e-12
4.78860754947e-10
1.00001212946e-11
4.70304631404e-10
1.19107390387e-11
4.60519511848e-10
1.36054989748e-11
4.49667697992e-10
1.5072629001e-11
4.37917504965e-10
1.63042528379e-11
4.25440591843e-10
1.72960085587e-11
4.12409207801e-10
1.80472222112e-11
3.98993157006e-10
1.85613915256e-11
3.85356474607e-10
1.88466828016e-11
3.71653978998e-10
1.89161739087e-11
3.58027979822e-10
1.87876675804e-11
3.44605456596e-10
1.84830227446e-11
3.31495978298e-10
1.80270737102e-11
3.18790531838e-10
1.74462960897e-11
3.06561298984e-10
1.67674157372e-11
2.94862302071e-10
1.60161421122e-11
2.83730751689e-10
1.52161558283e-11
2.73188885612e-10
1.43884139253e-11
2.63246083707e-10
1.35507755698e-11
2.53901068661e-10
1.27179072416e-11
2.45144043175e-10
1.19014033164e-11
2.3695866015e-10
1.11100523958e-11
2.29323764514e-10
1.03501861444e-11
2.22214880102e-10
9.6260599671e-12
2.15605440328e-10
8.94022911179e-12
2.09467778331e-10
8.29389689144e-12
2.0377390189e-10
7.68722231912e-12
1.98496082753e-10
7.11958223298e-12
1.93607290576e-10
6.58978817192e-12
1.890815e-10
6.09626139094e-12
1.84893896339e-10
5.63717098913e-12
1.81021001887e-10
5.21054069864e-12
1.77440741202e-10
4.8143297912e-12
1.74132460375e-10
4.44649313635e-12
1.71076912209e-10
4.10502483095e-12
1.68256216639e-10
3.78798919541e-12
1.65653803434e-10
3.49354231243e-12
1.63254342335e-10
3.21994677042e-12
1.61043664203e-10
2.96558182403e-12
1.59008675324e-10
2.72895086882e-12
1.57137265887e-10
2.50868788469e-12
1.55418212461e-10
2.30356440028e-12
1.53841073272e-10
2.11249850655e-12
1.52396073902e-10
1.93456757925e-12
1.51073979811e-10
1.76902660828e-12
1.49865950566e-10
1.615334474e-12
1.48763368976e-10
1.4731911341e-12
1.47757636129e-10
1.34258961774e-12
1.46839920956e-10
1.2238879723e-12
1.46000850171e-10
1.11790800023e-12
1.45230122378e-10
1.0260696392e-12
1.44516030239e-10
9.50571778448e-13
1.43844882404e-10
8.94630282683e-13
1.43200344952e-10
8.62776141557e-13
1.42562803952e-10
8.61182355778e-13
1.41909069427e-10
8.97870262771e-13
1.41213319272e-10
9.82254579382e-13
1.4045160277e-10
1.12221931943e-12
1.39616792596e-10
1.3116255064e-12
1.48498350727e-12
9.76219824704e-10
1.89967574312e-10
9.62965020573e-10
3.06400416498e-10
9.06044643777e-10
3.00215710933e-10
8.33622486356e-10
2.58186770663e-10
7.60694385728e-10
2.12731046326e-10
6.93673277e-10
1.73009998237e-10
6.34631626701e-10
1.40583416656e-10
5.83675446664e-10
1.14718447733e-10
5.40122973878e-10
9.41849768891e-11
5.03053788122e-10
7.78224164615e-11
4.71547331166e-10
6.46813592253e-11
4.44774647825e-10
5.40255749981e-11
4.22023791222e-10
4.52956987798e-11
4.02697234793e-10
3.806893574e-11
3.8629901764e-10
3.20248537814e-11
3.72419472833e-10
2.69189051803e-11
3.60720756566e-10
2.25627173259e-11
3.50924285845e-10
1.88096595421e-11
3.42800275597e-10
1.55443242933e-11
3.36159203238e-10
1.26748493309e-11
3.30844914983e-10
1.01272842538e-11
3.26729080293e-10
7.8414267108e-12
3.23706732905e-10
5.7677186073e-12
3.2169267956e-10
3.86491161578e-12
3.20618598765e-10
2.09829568747e-12
3.2043068728e-10
4.38343849724e-13
3.21087740785e-10
-1.14033145e-12
3.22559575496e-10
-2.65978105708e-12
3.2482571929e-10
-4.13934155329e-12
3.27874311465e-10
-5.59611542949e-12
3.31701157715e-10
-7.04532960486e-12
3.36308893949e-10
-8.50059119369e-12
3.41706216182e-10
-9.97405170773e-12
3.47907135282e-10
-1.1476484982e-11
3.54930215076e-10
-1.30172795421e-11
3.62797750798e-10
-1.46043424233e-11
3.71534842183e-10
-1.62439086869e-11
3.8116831256e-10
-1.79402491098e-11
3.91725422399e-10
-1.96952683141e-11
4.03232324436e-10
-2.15079874431e-11
4.15712208623e-10
-2.33739104781e-11
4.2918309128e-10
-2.5284282306e-11
4.43655215533e-10
-2.72252610693e-11
4.59128052916e-10
-2.91770477467e-11
4.7558693045e-10
-3.1113042638e-11
4.92999356398e-10
-3.29991295761e-11
5.11311179869e-10
-3.47932205514e-11
5.30442792431e-10
-3.64452184267e-11
5.50285654713e-10
-3.78975638297e-11
5.70699496262e-10
-3.90865124402e-11
5.91510574856e-10
-3.99442329385e-11
6.12511377248e-10
-4.04017236734e-11
6.33462085216e-10
-4.03924319678e-11
6.54094022199e-10
-3.98563501532e-11
6.74115151053e-10
-3.87442879976e-11
6.93217538527e-10
-3.70219986696e-11
7.1108655524e-10
-3.46738546798e-11
7.27411447165e-10
-3.17057949886e-11
7.41896781774e-10
-2.81472609109e-11
7.54274129054e-10
-2.40518061904e-11
7.64313190717e-10
-1.94960506328e-11
7.71831477415e-10
-1.4576706718e-11
7.76701602734e-10
-9.40558752361e-12
7.78855373575e-10
-4.10282245505e-12
7.7828416747e-10
1.21103314152e-12
7.75035631167e-10
6.42279307924e-12
7.69207422564e-10
1.1432825152e-11
7.6093923461e-10
1.6158536014e-11
7.50404466125e-10
2.05348872218e-11
7.37802600626e-10
2.45126014803e-11
7.23352788744e-10
2.80553072839e-11
7.07288597754e-10
3.1136815935e-11
6.89853556626e-10
3.37392894357e-11
6.71297017028e-10
3.58525432118e-11
6.51869922685e-10
3.74743112306e-11
6.31820266305e-10
3.86110422856e-11
6.11388243298e-10
3.92786999498e-11
5.90801322276e-10
3.95030889266e-11
5.70269591757e-10
3.93193920136e-11
5.49981784129e-10
3.87708242973e-11
5.30102319501e-10
3.79065323292e-11
5.10769580912e-10
3.67790288148e-11
4.92095468791e-10
3.54415221832e-11
4.74166130887e-10
3.39454745878e-11
4.5704365284e-10
3.23386287209e-11
4.40768437777e-10
3.06636241474e-11
4.25361995754e-10
2.89572130774e-11
4.10829893478e-10
2.72500053463e-11
3.97164664425e-10
2.55666285432e-11
3.8434853621e-10
2.3926177133e-11
3.72355885203e-10
2.23428340143e-11
3.61155373062e-10
2.08265693039e-11
3.50711753611e-10
1.93838460764e-11
3.40987361964e-10
1.80182863565e-11
3.31943312252e-10
1.67312701352e-11
3.23540437954e-10
1.55224549027e-11
3.15740011404e-10
1.43902133415e-11
3.0850427838e-10
1.33319932625e-11
3.0179684097e-10
1.23446074551e-11
2.95582918185e-10
1.14244627287e-11
2.89829509651e-10
1.05677377412e-11
2.84505483619e-10
9.77051873747e-12
2.79581606688e-10
9.02890146714e-12
2.75030529195e-10
8.33906651208e-12
2.70826737195e-10
7.69733424239e-12
2.66946479323e-10
7.10020466334e-12
2.63367674615e-10
6.54438663242e-12
2.60069805384e-10
6.02682026476e-12
2.57033797597e-10
5.54469589365e-12
2.54241889636e-10
5.09547262768e-12
2.5167748901e-10
4.67689943597e-12
2.4932501522e-10
4.28704169962e-12
2.4716972579e-10
3.9243163893e-12
2.45197521279e-10
3.58753934748e-12
2.43394724134e-10
3.27598864965e-12
2.41747825627e-10
2.98948849298e-12
2.40243195533e-10
2.72851843085e-12
2.38866751435e-10
2.49435244954e-12
2.37603590975e-10
2.28923043224e-12
2.36437604612e-10
2.11655844765e-12
2.353511165e-10
1.98111866773e-12
2.34324661267e-10
1.88923160498e-12
2.33337121674e-10
1.84872213401e-12
2.32366673055e-10
1.86831901431e-12
2.31393360689e-10
1.95556702535e-12
2.30404720267e-10
2.11085977485e-12
2.29404847127e-10
2.31149864826e-12
2.47346965446e-12
9.71754024544e-10
1.55713548671e-10
9.86629366352e-10
2.91525072447e-10
9.68062652939e-10
3.18782422203e-10
9.27672901329e-10
2.98576520186e-10
8.77317345365e-10
2.63086600202e-10
8.24521501575e-10
2.25805839936e-10
7.73438750409e-10
1.91666165729e-10
7.261054047e-10
1.62051791349e-10
6.833378975e-10
1.36952482001e-10
6.45289449327e-10
1.15870862556e-10
6.11775832376e-10
9.8194974115e-11
5.82459128114e-10
8.33422772234e-11
5.56947992634e-10
7.08068322532e-11
5.34850127849e-10
6.01667985579e-11
5.15797962506e-10
5.10770172029e-11
4.99459643011e-10
4.32572228051e-11
4.85542201586e-10
3.64801569416e-11
4.73790747975e-10
3.05611114123e-11
4.63985806202e-10
2.53492644005e-11
4.55939941922e-10
2.07207120313e-11
4.49494278392e-10
1.65729462992e-11
4.44515195212e-10
1.28205085116e-11
4.40891337745e-10
9.39157481115e-12
4.38530976322e-10
6.22527190511e-12
4.37359708558e-10
3.26956245762e-12
4.37318475906e-10
4.7957566343e-13
4.38361856068e-10
-2.18371228311e-12
4.40456586787e-10
-4.75451226402e-12
4.43580285536e-10
-7.26304059335e-12
4.47720322416e-10
-9.73615238902e-12
4.52872805932e-10
-1.21978129748e-11
4.59041642987e-10
-1.46694278617e-11
4.66237633837e-10
-1.7170041918e-11
4.74477561451e-10
-1.97164116901e-11
4.83783232453e-10
-2.23229493617e-11
4.94180423885e-10
-2.50015323857e-11
5.05697686535e-10
-2.77611695755e-11
5.18364952186e-10
-3.06075127019e-11
5.32211889398e-10
-3.35422031679e-11
5.47265951656e-10
-3.65620470462e-11
5.63550064191e-10
-3.96580200684e-11
5.81079903675e-10
-4.2814118564e-11
5.99860740637e-10
-4.60060945409e-11
6.19883840819e-10
-4.92001441937e-11
6.41122461317e-10
-5.23516591863e-11
6.63527532527e-10
-5.54041966536e-11
6.87023187374e-10
-5.82888711296e-11
7.11502382087e-10
-6.09244087825e-11
7.36822938958e-10
-6.32181163179e-11
7.62804417241e-10
-6.5067986377e-11
7.89226263528e-10
-6.63660749914e-11
8.15827687893e-10
-6.70031439856e-11
8.42309642253e-10
-6.68743825298e-11
8.68339144618e-10
-6.58858490328e-11
8.93556016611e-10
-6.39611568683e-11
9.17581915527e-10
-6.10478948549e-11
9.40031373922e-10
-5.71233107502e-11
9.60524415296e-10
-5.21988344387e-11
9.78700173515e-10
-4.63230175924e-11
9.94230784608e-10
-3.95824161053e-11
1.00683464828e-09
-3.20999134711e-11
1.01628801663e-09
-2.40300745561e-11
1.02243381649e-09
-1.55513872148e-11
1.02518671027e-09
-6.85571640172e-12
1.02453372692e-09
1.86401596255e-12
1.0205304309e-09
1.04260881755e-11
1.01329346894e-09
1.86697857755e-11
1.002991033e-09
2.64609701719e-11
9.89832943153e-10
3.36929748281e-11
9.7406162552e-10
4.02839163975e-11
9.55944523539e-10
4.61724060747e-11
9.35767835911e-10
5.13134999163e-11
9.13831108334e-10
5.56760129312e-11
8.90442113685e-10
5.92415333923e-11
8.6591156178e-10
6.2004858328e-11
8.40547407061e-10
6.39751919282e-11
8.14648793269e-10
6.51773084623e-11
7.88499918074e-10
6.56519587181e-11
7.62364259475e-10
6.54550451549e-11
7.36479647514e-10
6.46554308232e-11
7.11054587916e-10
6.33315865745e-11
6.86266081455e-10
6.15675300696e-11
6.62258985294e-10
5.94486133307e-11
6.39146783044e-10
5.70576720635e-11
6.17013503067e-10
5.44719041911e-11
5.95916462525e-10
5.17606604791e-11
5.75889510298e-10
4.89841614036e-11
5.56946478771e-10
4.61930332947e-11
5.39084612962e-10
4.34284910961e-11
5.22287810287e-10
4.07229768751e-11
5.06529564356e-10
3.81010773263e-11
4.91775556386e-10
3.55805749604e-11
4.77985875883e-10
3.31735245573e-11
4.65116879045e-10
3.08872814485e-11
4.53122710324e-10
2.87254373687e-11
4.41956522069e-10
2.66886419101e-11
4.31571431109e-10
2.47753032755e-11
4.21921251322e-10
2.29821722263e-11
4.12961039075e-10
2.13048190628e-11
4.04647484899e-10
1.97380164319e-11
3.9693918065e-10
1.82760416657e-11
3.89796787152e-10
1.69129120431e-11
3.83183123216e-10
1.56425653261e-11
3.77063193165e-10
1.44589965882e-11
3.71404166597e-10
1.3356360923e-11
3.66175321173e-10
1.23290502755e-11
3.61347956611e-10
1.13717514457e-11
3.56895285857e-10
1.04794913231e-11
3.52792307464e-10
9.64767463322e-12
3.49015661561e-10
8.87211891148e-12
3.45543470349e-10
8.14909105288e-12
3.42355162875e-10
7.47534959668e-12
3.39431282856e-10
6.84819684258e-12
3.36753277744e-10
6.26554489607e-12
3.34303267167e-10
5.72599966257e-12
3.32063789686e-10
5.22896640279e-12
3.30017529288e-10
4.77477924477e-12
3.28147028042e-10
4.3648540928e-12
3.26434400959e-10
4.00185788942e-12
3.24861086127e-10
3.6898736215e-12
3.2340769242e-10
3.4345126769e-12
3.22054054912e-10
3.24286936708e-12
3.2077968211e-10
3.1230951341e-12
3.19564877807e-10
3.08312345689e-12
3.18392898152e-10
3.12754676505e-12
3.1725322196e-10
3.25053600356e-12
3.16143919996e-10
3.42080062012e-12
3.55528166995e-12
9.63942778225e-10
1.29270769284e-10
9.87688300459e-10
2.67779547876e-10
9.89760989007e-10
3.16709731417e-10
9.72245878924e-10
3.16091628104e-10
9.42087126767e-10
2.93245350198e-10
9.05328645969e-10
2.62564318569e-10
8.66162929921e-10
2.30831879607e-10
8.27235283508e-10
2.0097943559e-10
7.90100521408e-10
1.74087241927e-10
7.55596651041e-10
1.50374730757e-10
7.24109515197e-10
1.29682107805e-10
6.95749612264e-10
1.1170217802e-10
6.70466626108e-10
9.60898162996e-11
6.48122059951e-10
8.25113626358e-11
6.28534455172e-10
7.06646199411e-11
6.11506970831e-10
6.02847051503e-11
5.96843752763e-10
5.11433730643e-11
5.84359255516e-10
4.30456067719e-11
5.73883186343e-10
3.58253317519e-11
5.65262769957e-10
2.93411266702e-11
5.58363408092e-10
2.34723064994e-11
5.53068408208e-10
1.81155068236e-11
5.49278200809e-10
1.31817807414e-11
5.4690930276e-10
8.59416859886e-12
5.45893180995e-10
4.28568299459e-12
5.46175105502e-10
1.97650066963e-13
5.47713037649e-10
-3.72164536854e-12
5.50476571834e-10
-7.51804722099e-12
5.54445942782e-10
-1.12324121334e-11
5.59611082997e-10
-1.49012930023e-11
5.6597071429e-10
-1.8557444456e-11
5.73531450656e-10
-2.22301641933e-11
5.82306884321e-10
-2.59454753113e-11
5.92316621778e-10
-2.97261486254e-11
6.03585231833e-10
-3.35915586326e-11
6.16141062841e-10
-3.75573623367e-11
6.30014881606e-10
-4.16349870031e-11
6.45238282185e-10
-4.58309116546e-11
6.6184180967e-10
-5.01457287356e-11
6.79852743038e-10
-5.45729782043e-11
6.99292483636e-10
-5.9097758168e-11
7.20173503971e-10
-6.36951361167e-11
7.42495827533e-10
-6.83284150514e-11
7.66243037605e-10
-7.29473509577e-11
7.91377854291e-10
-7.74864723357e-11
8.17837377347e-10
-8.18637159701e-11
8.45528168293e-10
-8.59796581747e-11
8.74321436643e-10
-8.97176731157e-11
9.04048693077e-10
-9.29453686781e-11
9.34498321663e-10
-9.55176108927e-11
9.65413580409e-10
-9.72813297461e-11
9.96492538867e-10
-9.80820986014e-11
1.02739038324e-09
-9.77722232841e-11
1.05772436304e-09
-9.62198255052e-11
1.08708144411e-09
-9.33182349545e-11
1.11502851676e-09
-8.89949648905e-11
1.14112482578e-09
-8.32196175609e-11
1.16493614821e-09
-7.60101550421e-11
1.18605010971e-09
-6.74369776437e-11
1.20409186087e-09
-5.76241661595e-11
1.21873913027e-09
-4.67471820923e-11
1.22973548987e-09
-3.5026433669e-11
1.23690057729e-09
-2.27164744373e-11
1.24013607495e-09
-1.00912141731e-11
1.23942655068e-09
2.57353980284e-12
1.23483499286e-09
1.50176452104e-11
1.22649400839e-09
2.70107690797e-11
1.21459463307e-09
3.83603439157e-11
1.19937492036e-09
4.89126855217e-11
1.18110983147e-09
5.85490028193e-11
1.16010294663e-09
6.7179287988e-11
1.13667972758e-09
7.47367156004e-11
1.11118168077e-09
8.11740559562e-11
1.08396072326e-09
8.6462486761e-11
1.05537321732e-09
9.05923597914e-11
1.02577342587e-09
9.35749786642e-11
9.95506465503e-10
9.54442639265e-11
9.64901121028e-10
9.62572981835e-11
9.34263066971e-10
9.60930941617e-11
9.03869081599e-10
9.50494111774e-11
8.7396273533e-10
9.32379279182e-11
8.44751830444e-10
9.0778430179e-11
8.16407628626e-10
8.77928105671e-11
7.89065691991e-10
8.43996043538e-11
7.62828021808e-10
8.07095702933e-11
7.37766117528e-10
7.68225609673e-11
7.13924583965e-10
7.28256914758e-11
6.91324963925e-10
6.87926501536e-11
6.69969543729e-10
6.47839084227e-11
6.4984495267e-10
6.0847565372e-11
6.30925443429e-10
5.70205843062e-11
6.13175793999e-10
5.33302224177e-11
5.96553811683e-10
4.97955051762e-11
5.81012447397e-10
4.64286442958e-11
5.66501546105e-10
4.32363374653e-11
5.52969269006e-10
4.02209180367e-11
5.40363227386e-10
3.73813441279e-11
5.28631368476e-10
3.47140305567e-11
5.17722651741e-10
3.22135353852e-11
5.07587550733e-10
2.98731171789e-11
4.98178411585e-10
2.76851806869e-11
4.89449695101e-10
2.56416285181e-11
4.8135812525e-10
2.373413527e-11
4.73862763079e-10
2.1954358942e-11
4.66925021573e-10
2.02941026868e-11
4.6050863396e-10
1.87454382106e-11
4.54579585224e-10
1.73008005572e-11
4.49106014314e-10
1.59530626506e-11
4.44058092535e-10
1.46955968633e-11
4.39407881926e-10
1.35223299954e-11
4.3512917608e-10
1.24277973923e-11
4.31197324753e-10
1.14072014251e-11
4.27589042954e-10
1.04564791473e-11
4.24282204874e-10
9.57238347812e-12
4.21255623481e-10
8.75258155094e-12
4.18488817862e-10
7.99577250149e-12
4.15961773236e-10
7.30182433427e-12
4.13654703373e-10
6.67192439447e-12
4.11547833353e-10
6.10872831894e-12
4.09621233102e-10
5.61647424507e-12
4.07854750792e-10
5.20099531504e-12
4.06228120154e-10
4.86950027824e-12
4.04721342839e-10
4.62987266225e-12
4.03315453599e-10
4.48901284342e-12
4.01993671209e-10
4.44932923859e-12
4.00742402082e-10
4.50180516826e-12
3.99549620375e-10
4.61358233486e-12
4.710431754e-12
9.57556134391e-10
1.09214633694e-10
9.82570618168e-10
2.42765061694e-10
9.95083380054e-10
3.04196967235e-10
9.92351515045e-10
3.18823490878e-10
9.7752280731e-10
3.08074055697e-10
9.54700417439e-10
2.85386706195e-10
9.27337093442e-10
2.58195201351e-10
8.97966811278e-10
2.30349715492e-10
8.68328061198e-10
2.03725989744e-10
8.39556925778e-10
1.79145863915e-10
8.12359152878e-10
1.5687987845e-10
7.87143186547e-10
1.36918142109e-10
7.64117222698e-10
1.19115777925e-10
7.43357958381e-10
1.03270624755e-10
7.24858419506e-10
8.91641566466e-11
7.08560793669e-10
7.65823288546e-11
6.94378702537e-10
6.53254621043e-11
6.8221212083e-10
5.5212186436e-11
6.71957217584e-10
4.60802330081e-11
6.6351271578e-10
3.77856265483e-11
6.56783880852e-10
3.02011395706e-11
6.51684906291e-10
2.32144796068e-11
6.48140224927e-10
1.67264604168e-11
6.46085107677e-10
1.06492842594e-11
6.45465795609e-10
4.90499358429e-12
6.46239330667e-10
-5.75886347305e-13
6.48373190175e-10
-5.85550609807e-12
6.51844797101e-10
-1.09896552197e-11
6.56640954594e-10
-1.6028570537e-11
6.62757216941e-10
-2.10175560818e-11
6.70197204949e-10
-2.59974330052e-11
6.78971860501e-10
-3.10048200803e-11
6.89098625412e-10
-3.60722403356e-11
7.00600521567e-10
-4.12280446585e-11
7.13505102075e-10
-4.64961387718e-11
7.27843236501e-10
-5.18954961314e-11
7.43647687095e-10
-5.74394366957e-11
7.60951427606e-10
-6.31346509823e-11
7.79785652027e-10
-6.89799516885e-11
8.00177418648e-10
-7.49647430642e-11
8.22146876036e-10
-8.1067213504e-11
8.45704024333e-10
-8.72522820722e-11
8.70844979721e-10
-9.34693678148e-11
8.97547735669e-10
-9.96501040096e-11
9.25767455194e-10
-1.05706188713e-10
9.55431387653e-10
-1.11527645051e-10
9.86433583846e-10
-1.16981850797e-10
1.01862968351e-09
-1.2191376906e-10
1.05183216196e-09
-1.26147843303e-10
1.08580653084e-09
-1.29491975908e-10
1.12026906439e-09
-1.31743859469e-10
1.15488663304e-09
-1.32699663545e-10
1.18927914245e-09
-1.32164729168e-10
1.2230248928e-09
-1.29965572593e-10
1.25566892347e-09
-1.2596226269e-10
1.2867341561e-09
-1.20060194947e-10
1.31573495686e-09
-1.12220416138e-10
1.34219261583e-09
-1.02467812222e-10
1.36565212847e-09
-9.08964888643e-11
1.38569948573e-09
-7.76715223443e-11
1.40197842744e-09
-6.30261230218e-11
1.41420537098e-09
-4.72533767147e-11
1.42218108208e-09
-3.06921853083e-11
1.42579763667e-09
-1.37077687979e-11
1.42503944925e-09
3.33172690932e-12
1.4199779557e-09
2.00791381291e-11
1.41076106784e-09
3.62276559559e-11
1.39759995787e-09
5.1521452505e-11
1.38075601804e-09
6.5756623536e-11
1.36052982973e-09
7.87751888672e-11
1.33725255877e-09
9.04565562247e-11
1.31127921909e-09
1.00710052121e-10
1.28298288361e-09
1.0947038786e-10
1.25274895521e-09
1.16696411223e-10
1.22096885659e-09
1.22372454178e-10
1.18803286333e-09
1.26510967465e-10
1.1543222036e-09
1.29154919042e-10
1.12020089226e-09
1.30378604816e-10
1.08600798135e-09
1.3028600035e-10
1.05205094596e-09
1.29006441903e-10
1.01860078405e-09
1.26688085265e-10
9.8588914542e-10
1.23490064419e-10
9.54107507006e-10
1.19574444795e-10
9.23408162272e-10
1.15098945145e-10
8.93906636523e-10
1.10211092369e-10
8.65685084606e-10
1.050441095e-10
8.38796249609e-10
9.9714523388e-11
8.13267629569e-10
9.43212674129e-11
7.8910558534e-10
8.89459501744e-11
7.66299206989e-10
8.36539415441e-11
7.44823828007e-10
7.84959613972e-11
7.24644132475e-10
7.35099163345e-11
7.05716840533e-10
6.87227957648e-11
6.87992984404e-10
6.41524993157e-11
6.7141980374e-10
5.98095172471e-11
6.55942297898e-10
5.56984232037e-11
6.41504476338e-10
5.18191652023e-11
6.28050348338e-10
4.81681582418e-11
6.15524691112e-10
4.47391924494e-11
6.03873632015e-10
4.15241762492e-11
5.9304507658e-10
3.85137362124e-11
5.82989010004e-10
3.56976952886e-11
5.7365769568e-10
3.30654498778e-11
5.65005790656e-10
3.06062643246e-11
5.56990394478e-10
2.83094992853e-11
5.49571044856e-10
2.61647883055e-11
5.42709670939e-10
2.41621749883e-11
5.36370512716e-10
2.22922214186e-11
5.30520013094e-10
2.05460970533e-11
5.25126687583e-10
1.89156560893e-11
5.20160975218e-10
1.73935103481e-11
5.15595073347e-10
1.59731038879e-11
5.11402758294e-10
1.46487947872e-11
5.07559193694e-10
1.34159486541e-11
5.04040728656e-10
1.227104715e-11
5.00824688965e-10
1.12118127335e-11
4.97889166607e-10
1.02373472084e-11
4.95212816235e-10
9.34827525231e-12
4.92774672204e-10
8.54687280058e-12
4.90554006622e-10
7.83714023535e-12
4.8853025703e-10
7.2247452643e-12
4.86683058946e-10
6.7166986604e-12
4.84992413779e-10
6.3205180607e-12
4.8343897578e-10
6.0424510031e-12
4.82004263075e-10
5.88404203743e-12
4.80670051912e-10
5.83601637722e-12
4.79414967846e-10
5.86866641623e-12
5.92034805348e-12
9.52941679077e-10
9.37729533647e-11
9.76522859536e-10
2.19183878758e-10
9.93883703439e-10
2.86836120964e-10
1.0003101277e-09
3.12397064329e-10
9.96430794302e-10
3.11953386807e-10
9.84654831814e-10
2.97162666389e-10
9.67523403767e-10
2.75326627095e-10
9.47167560126e-10
2.50705556821e-10
9.25216618794e-10
2.25676928758e-10
9.02855288011e-10
2.01507192379e-10
8.80914591736e-10
1.78820572411e-10
8.59958004375e-10
1.57874727166e-10
8.40352429838e-10
1.38721350175e-10
8.22323384924e-10
1.21299667401e-10
8.0599665474e-10
1.05490884589e-10
7.91429194259e-10
9.1149787124e-11
7.78631780598e-10
7.81228735913e-11
7.67585460495e-10
6.62585044054e-11
7.58253387395e-10
5.54123040239e-11
7.50589261456e-10
4.54497504587e-11
7.44543282365e-10
3.62471166951e-11
7.40066290498e-10
2.76914695799e-11
7.37112594235e-10
1.96801548655e-11
7.35641847939e-10
1.21200288322e-11
7.35620245662e-10
4.92659423993e-12
7.37021222232e-10
-1.97686442514e-12
7.39825790496e-10
-8.66007574381e-12
7.44022622002e-10
-1.51864879684e-11
7.49607933088e-10
-2.1613882713e-11
7.56585211712e-10
-2.79948356266e-11
7.64964809591e-10
-3.43770316237e-11
7.7476340847e-10
-4.08034194997e-11
7.86003357179e-10
-4.73121893727e-11
7.98711866045e-10
-5.39365536242e-11
8.12920036197e-10
-6.07043087816e-11
8.28661693265e-10
-6.76371528012e-11
8.45971987507e-10
-7.47497302716e-11
8.64885715771e-10
-8.20483783021e-11
8.85435315107e-10
-8.95295497935e-11
9.07648474085e-10
-9.7177900518e-11
9.3154530705e-10
-1.0496404465e-10
9.57135040526e-10
-1.12842013433e-10
9.84412172308e-10
-1.20746497189e-10
1.0133520862e-09
-1.28590015207e-10
1.04390614326e-09
-1.36260242819e-10
1.07599632926e-09
-1.43617827841e-10
1.10950962165e-09
-1.50495139766e-10
1.14429235023e-09