/*--------------------------------*- C++ -*----------------------------------*\
  =========                 |
  \\      /  F ield         | OpenFOAM: The Open Source CFD Toolbox
   \\    /   O peration     | Website:  https://openfoam.org
    \\  /    A nd           | Version:  7
     \\/     M anipulation  |
\*---------------------------------------------------------------------------*/
FoamFile
{
    version     2.0;
    format      ascii;
    class       volVectorField;
    location    "1680";
    object      U;
}
// * * * * * * * * * * * * * * * * * * * * * * * * * * * * * * * * * * * * * //

dimensions      [0 1 -1 0 0 0 0];

internalField   nonuniform List<vector> 
8192
(
(0.00104346473147 0.000156535268534 0)
(0.0007593331037 0.000127596358478 0)
(0.000549341985414 8.23947583304e-05 0)
(0.000414094523171 5.28527025028e-05 0)
(0.000326285010619 3.49568086816e-05 0)
(0.000267262558609 2.40656419594e-05 0)
(0.000225962302718 1.72346125632e-05 0)
(0.000195947253511 1.27804352774e-05 0)
(0.000173410026685 9.75679018672e-06 0)
(0.000156028504015 7.62473112839e-06 0)
(0.000142334547514 6.06922402842e-06 0)
(0.000131365196695 4.90012546406e-06 0)
(0.000122466389111 3.99868081535e-06 0)
(0.000115179550702 3.28815631776e-06 0)
(0.000109174056856 2.71733628628e-06 0)
(0.00010420572693 2.25099243834e-06 0)
(0.000100090515611 1.86421772655e-06 0)
(9.6687338746e-05 1.53895803684e-06 0)
(9.38865514215e-05 1.26182824546e-06 0)
(9.16020226507e-05 1.0226995494e-06 0)
(8.97655597846e-05 8.13762414419e-07 0)
(8.83229062176e-05 6.28890331696e-07 0)
(8.72308167533e-05 4.63198401439e-07 0)
(8.64548867837e-05 3.12730935597e-07 0)
(8.59679190246e-05 1.74236298688e-07 0)
(8.57486804056e-05 4.50019133679e-08 0)
(8.57809466452e-05 -7.7268432007e-08 0)
(8.60527613473e-05 -1.94546410376e-07 0)
(8.65558564614e-05 -3.08548694677e-07 0)
(8.7285195947e-05 -4.20790621238e-07 0)
(8.8238613483e-05 -5.32626573867e-07 0)
(8.94165201485e-05 -6.45279568534e-07 0)
(9.0821662165e-05 -7.59861732657e-07 0)
(9.24589113218e-05 -8.77386506874e-07 0)
(9.4335071728e-05 -9.98772771806e-07 0)
(9.64586864309e-05 -1.12484058566e-06 0)
(9.88398263885e-05 -1.25629780319e-06 0)
(0.000101489842486 -1.39371649848e-06 0)
(0.000104421058923 -1.53749791317e-06 0)
(0.000107646383709 -1.68782461959e-06 0)
(0.0001111788097 -1.84459889455e-06 0)
(0.000115030778315 -2.00736702531e-06 0)
(0.000119213378906 -2.17523066436e-06 0)
(0.000123735361154 -2.34674849018e-06 0)
(0.000128601947405 -2.51983449411e-06 0)
(0.000133813448303 -2.69166298864e-06 0)
(0.00013936370944 -2.85859461291e-06 0)
(0.00014523844889 -3.0161412162e-06 0)
(0.000151413583154 -3.15898938403e-06 0)
(0.000157853677094 -3.2811008926e-06 0)
(0.000164510684139 -3.3759025418e-06 0)
(0.00017132315758 -3.43656739337e-06 0)
(0.000178216104645 -3.45637632363e-06 0)
(0.000185101620289 -3.42913618207e-06 0)
(0.000191880382114 -3.34962275597e-06 0)
(0.000198444022403 -3.21401493108e-06 0)
(0.000204678329107 -3.02028947848e-06 0)
(0.000210467169277 -2.76854870965e-06 0)
(0.000215696971207 -2.46125154878e-06 0)
(0.000220261536149 -2.1033120196e-06 0)
(0.000224066872781 -1.70202352118e-06 0)
(0.000227035667383 -1.26677026023e-06 0)
(0.000229110943993 -8.08505795651e-07 0)
(0.000230258467266 -3.39017193875e-07 0)
(0.000230467537083 1.29947376627e-07 0)
(0.000229750047274 5.87542130729e-07 0)
(0.000228138015267 1.02448925379e-06 0)
(0.000225680104608 1.43342044203e-06 0)
(0.000222437819331 1.80886351726e-06 0)
(0.00021848199798 2.14695615104e-06 0)
(0.000213889994354 2.44504542185e-06 0)
(0.000208743621877 2.70132463132e-06 0)
(0.000203127692908 2.91460154889e-06 0)
(0.00019712886357 3.08422464718e-06 0)
(0.000190834495187 3.21014026345e-06 0)
(0.000184331329034 3.29302211866e-06 0)
(0.000177703898408 3.33440447953e-06 0)
(0.000171032731247 3.33675844548e-06 0)
(0.000164392496239 3.30347217359e-06 0)
(0.00015785029549 3.23872408921e-06 0)
(0.000151464301456 3.14726541865e-06 0)
(0.000145282883502 3.03414802446e-06 0)
(0.000139344289854 2.9044411773e-06 0)
(0.000133676867447 2.76297689327e-06 0)
(0.000128299735105 2.61415126092e-06 0)
(0.000123223785655 2.46179418269e-06 0)
(0.000118452881194 2.30910647834e-06 0)
(0.000113985117043 2.15865409813e-06 0)
(0.000109814054948 2.01240466253e-06 0)
(0.000105929856196 1.87179100267e-06 0)
(0.000102320274066 1.73778829039e-06 0)
(9.89714887045e-05 1.6109944848e-06 0)
(9.58687847991e-05 1.49170707952e-06 0)
(9.29970835973e-05 1.37999201913e-06 0)
(9.03413468595e-05 1.27574284443e-06 0)
(8.78868726869e-05 1.17872967119e-06 0)
(8.56195030148e-05 1.08863854898e-06 0)
(8.3525760937e-05 1.00510226829e-06 0)
(8.15929337006e-05 9.27723885491e-07 0)
(7.98091146412e-05 8.56094254935e-07 0)
(7.81632148564e-05 7.89804760948e-07 0)
(7.6644953165e-05 7.28456297697e-07 0)
(7.52448309732e-05 6.71665384733e-07 0)
(7.39540970397e-05 6.19068150019e-07 0)
(7.27647058106e-05 5.70322779133e-07 0)
(7.16692719074e-05 5.2511091184e-07 0)
(7.06610224763e-05 4.83138384159e-07 0)
(6.97337483808e-05 4.4413564356e-07 0)
(6.88817545953e-05 4.0785813263e-07 0)
(6.80998095901e-05 3.74086913105e-07 0)
(6.7383092937e-05 3.42629822686e-07 0)
(6.6727139742e-05 3.13323490187e-07 0)
(6.61277797699e-05 2.86036628178e-07 0)
(6.55810681594e-05 2.60675151162e-07 0)
(6.5083203291e-05 2.37189903236e-07 0)
(6.46304254604e-05 2.15588125335e-07 0)
(6.42188871578e-05 1.95950382675e-07 0)
(6.38444813696e-05 1.78455613938e-07 0)
(6.35026073772e-05 1.63418585716e-07 0)
(6.31878422045e-05 1.51346788314e-07 0)
(6.28934670036e-05 1.43028602986e-07 0)
(6.26107659522e-05 1.39672622349e-07 0)
(6.23279631243e-05 1.4313035716e-07 0)
(6.20285860976e-05 1.56246793651e-07 0)
(6.16889766136e-05 1.8336278459e-07 0)
(6.12748921105e-05 2.30721783706e-07 0)
(6.07390085568e-05 3.05161805493e-07 0)
(6.00423080036e-05 3.9153875849e-07 0)
(0.00121017533171 0.000302895204628 0)
(0.00116033382713 0.000315209551819 0)
(0.00102700273258 0.000238103773545 0)
(0.000887651821698 0.000171742056301 0)
(0.00076709808985 0.000124430695249 0)
(0.000668813760653 9.1898532566e-05 0)
(0.00059009439012 6.94213443511e-05 0)
(0.000527114850878 5.35882879198e-05 0)
(0.000476439417125 4.21615941231e-05 0)
(0.000435334062937 3.37068000796e-05 0)
(0.000401714007821 2.73011627659e-05 0)
(0.000374009564112 2.23419773889e-05 0)
(0.000351037815749 1.84273810475e-05 0)
(0.000331900826264 1.52832802851e-05 0)
(0.000315910143945 1.27183849016e-05 0)
(0.000302532230034 1.05961842089e-05 0)
(0.000291349284517 8.81717948949e-06 0)
(0.000282031054606 7.30739991564e-06 0)
(0.000274314395141 6.01083020948e-06 0)
(0.000267988301038 4.88431772133e-06 0)
(0.000262882824949 3.8940806914e-06 0)
(0.000258860778335 3.01326998423e-06 0)
(0.000255811447925 2.22023665372e-06 0)
(0.000253645788111 1.49728080481e-06 0)
(0.000252292706672 8.29734301656e-07 0)
(0.000251696169256 2.05278985287e-07 0)
(0.000251812923032 -3.86566081719e-07 0)
(0.000252610691406 -9.54831969748e-07 0)
(0.000254066728785 -1.50739530085e-06 0)
(0.000256166651803 -2.05120569684e-06 0)
(0.000258903480391 -2.59245627516e-06 0)
(0.000262276833031 -3.13670726927e-06 0)
(0.000266292228772 -3.68896930156e-06 0)
(0.000270960453342 -4.25374956453e-06 0)
(0.000276296948653 -4.83506169595e-06 0)
(0.000282321184837 -5.43639816003e-06 0)
(0.000289055972068 -6.06066236237e-06 0)
(0.00029652666634 -6.71005657883e-06 0)
(0.000304760219704 -7.38592122852e-06 0)
(0.000313784022059 -8.08852137255e-06 0)
(0.000323624479652 -8.81677800351e-06 0)
(0.000334305276736 -9.56794526931e-06 0)
(0.000345845273516 -1.03372408613e-05 0)
(0.000358256008352 -1.11174459141e-05 0)
(0.000371538798041 -1.18985030778e-05 0)
(0.000385681469392 -1.26671563353e-05 0)
(0.000400654809436 -1.34066918364e-05 0)
(0.000416408888885 -1.40968521014e-05 0)
(0.000432869488457 -1.47140014948e-05 0)
(0.00044993492982 -1.52316133359e-05 0)
(0.000467473667471 -1.56211242908e-05 0)
(0.000485323018331 -1.58531598409e-05 0)
(0.000503289379259 -1.58990823161e-05 0)
(0.000521150205314 -1.57327630232e-05 0)
(0.000538657902398 -1.53324467592e-05 0)
(0.000555545646348 -1.46825679837e-05 0)
(0.000571534996856 -1.37753873818e-05 0)
(0.000586345039212 -1.2612328009e-05 0)
(0.000599702654891 -1.12048854524e-05 0)
(0.00061135338191 -9.57496654978e-06 0)
(0.000621072176013 -7.75449704188e-06 0)
(0.000628673245959 -5.78415942288e-06 0)
(0.00063401805547 -3.71120170828e-06 0)
(0.000637020621202 -1.58641008278e-06 0)
(0.000637649453872 5.39437097694e-07 0)
(0.00063592592731 2.61906716301e-06 0)
(0.000631919476085 4.6114448474e-06 0)
(0.000625740603444 6.48324450888e-06 0)
(0.000617532982319 8.20894114578e-06 0)
(0.000607465847265 9.7698291358e-06 0)
(0.000595727451682 1.11525647657e-05 0)
(0.000582519814298 1.2347807192e-05 0)
(0.000568054529893 1.33493233651e-05 0)
(0.000552549181957 1.41536701247e-05 0)
(0.000536223871772 1.47603624786e-05 0)
(0.000519297513477 1.5172312695e-05 0)
(0.000501983764233 1.53962814725e-05 0)
(0.000484486690307 1.5443109747e-05 0)
(0.000466996453645 1.5327579425e-05 0)
(0.000449685399308 1.50678586458e-05 0)
(0.000432704918332 1.46845925932e-05 0)
(0.000416183366487 1.41997775219e-05 0)
(0.000400225171726 1.36355872491e-05 0)
(0.000384911104675 1.30133078451e-05 0)
(0.000370299554406 1.2352490991e-05 0)
(0.000356428567872 1.16703790949e-05 0)
(0.000343318380364 1.0981602843e-05 0)
(0.000330974177515 1.02981147328e-05 0)
(0.000319388871575 9.629302785e-06 0)
(0.000308545730129 8.98222453598e-06 0)
(0.000298420751785 8.36190742283e-06 0)
(0.000288984732554 7.77167286375e-06 0)
(0.000280205005075 7.21345371106e-06 0)
(0.000272046859942 6.68808602966e-06 0)
(0.000264474675342 6.19556512867e-06 0)
(0.000257452790171 5.7352623003e-06 0)
(0.00025094615893 5.306102979e-06 0)
(0.000244920825969 4.90670955849e-06 0)
(0.000239344253657 4.53551331854e-06 0)
(0.000234185534864 4.19084030207e-06 0)
(0.000229415515577 3.87097582732e-06 0)
(0.00022500684901 3.57421190496e-06 0)
(0.000220933998454 3.29888127654e-06 0)
(0.000217173202463 3.04338123508e-06 0)
(0.000213702412846 2.80618985909e-06 0)
(0.000210501213292 2.58587684491e-06 0)
(0.000207550724184 2.38111075154e-06 0)
(0.000204833497297 2.1906641996e-06 0)
(0.000202333402375 2.01341837883e-06 0)
(0.000200035506142 1.84836812929e-06 0)
(0.000197925942869 1.69462886688e-06 0)
(0.000195991774191 1.55144674091e-06 0)
(0.000194220834376 1.41821365748e-06 0)
(0.000192601555442 1.29448921452e-06 0)
(0.000191122764507 1.18003222906e-06 0)
(0.000189773443267 1.07484548069e-06 0)
(0.000188542436535 9.79238684949e-07 0)
(0.000187418093521 8.93916734083e-07 0)
(0.000186387822431 8.20103154804e-07 0)
(0.000185437537675 7.5971272652e-07 0)
(0.000184550984092 7.15591983904e-07 0)
(0.000183708945508 6.91849352945e-07 0)
(0.000182888415299 6.94287064858e-07 0)
(0.000182061998963 7.30883761824e-07 0)
(0.000181198328767 8.12005715394e-07 0)
(0.000180265550107 9.48942148143e-07 0)
(0.000179243773034 1.14460212959e-06 0)
(0.000178150643836 1.34192820315e-06 0)
(0.00122478068781 0.000267939183653 0)
(0.00124107830098 0.0003837094599 0)
(0.00119616618518 0.000347847070211 0)
(0.00111338696329 0.000284128887022 0)
(0.00102036279813 0.000225621756216 0)
(0.000930795304145 0.000178559289478 0)
(0.000850115138368 0.000142160118448 0)
(0.000779716526954 0.000114227659192 0)
(0.000719230989147 9.26831891454e-05 0)
(0.00066763312768 7.58884154866e-05 0)
(0.000623744716345 6.26280086417e-05 0)
(0.000586446066555 5.20182199236e-05 0)
(0.00055475100099 4.34179474512e-05 0)
(0.000527821456649 3.63592428409e-05 0)
(0.000504957601557 3.04969550354e-05 0)
(0.000485579833903 2.55732910859e-05 0)
(0.000469209746815 2.13931008515e-05 0)
(0.000455452827143 1.78066239857e-05 0)
(0.000443983719323 1.46973695117e-05 0)
(0.000434534066455 1.19735217437e-05 0)
(0.000426882635661 9.56178019938e-06 0)
(0.000420847356976 7.40289274745e-06 0)
(0.000416278920447 5.44837816095e-06 0)
(0.000413055623978 3.65809330331e-06 0)
(0.000411079218128 1.99840724295e-06 0)
(0.000410271543069 4.40817135742e-07 0)
(0.000410571793962 -1.03910977771e-06 0)
(0.00041193428242 -2.4625454359e-06 0)
(0.000414326588663 -3.84802520028e-06 0)
(0.000417728019683 -5.21192895048e-06 0)
(0.000422128300276 -6.5688406484e-06 0)
(0.000427526433065 -7.9318060647e-06 0)
(0.000433929670484 -9.31250066184e-06 0)
(0.000441352544937 -1.07213134461e-05 0)
(0.000449815904229 -1.21673478311e-05 0)
(0.000459345898159 -1.36583367253e-05 0)
(0.000469972859508 -1.52004661188e-05 0)
(0.000481730019035 -1.67980995106e-05 0)
(0.000494651990373 -1.84533950364e-05 0)
(0.000508772957974 -2.01658087166e-05 0)
(0.000524124501157 -2.1931481815e-05 0)
(0.000540732991938 -2.37425189198e-05 0)
(0.00055861651636 -2.55861772813e-05 0)
(0.000577781291807 -2.74440079818e-05 0)
(0.000598217589354 -2.9291015872e-05 0)
(0.000619895223583 -3.10949362754e-05 0)
(0.000642758743211 -3.28157583764e-05 0)
(0.000666722542273 -3.44056506783e-05 0)
(0.000691666206172 -3.58094529618e-05 0)
(0.000717430496624 -3.6965880405e-05 0)
(0.000743814445516 -3.78095308296e-05 0)
(0.000770574049347 -3.82736955985e-05 0)
(0.000797423015977 -3.82938624518e-05 0)
(0.000824035908746 -3.78116909392e-05 0)
(0.000850053870881 -3.67791683217e-05 0)
(0.000875092921331 -3.51626322011e-05 0)
(0.000898754620011 -3.29463648984e-05 0)
(0.000920638721539 -3.01354880921e-05 0)
(0.000940357266521 -2.67578808865e-05 0)
(0.00095754938293 -2.2864810492e-05 0)
(0.000971895884653 -1.85299459257e-05 0)
(0.000983132587604 -1.38464814622e-05 0)
(0.000991061171295 -8.92227192774e-06 0)
(0.000995556464838 -3.87319926014e-06 0)
(0.000996569306269 1.18455093164e-06 0)
(0.000994124671127 6.142112603e-06 0)
(0.000988315554388 1.09039636909e-05 0)
(0.000979293860592 1.53912871158e-05 0)
(0.000967259968471 1.95424054505e-05 0)
(0.000952452522721 2.33109379322e-05 0)
(0.000935139449197 2.66629160055e-05 0)
(0.000915610487359 2.95740447591e-05 0)
(0.000894170978804 3.20278670551e-05 0)
(0.000871136367139 3.40150731331e-05 0)
(0.000846826841416 3.55337814028e-05 0)
(0.000821561720954 3.65903576391e-05 0)
(0.000795653446146 3.72002449609e-05 0)
(0.000769401321967 3.73883282146e-05 0)
(0.000743085384981 3.71885181402e-05 0)
(0.000716960880567 3.66424621068e-05 0)
(0.000691253826323 3.57975078652e-05 0)
(0.000666158016265 3.47042079389e-05 0)
(0.00064183363181 3.3413720269e-05 0)
(0.000618407423793 3.1975434688e-05 0)
(0.000595974261585 3.04350621115e-05 0)
(0.000574599737995 2.88333043665e-05 0)
(0.00055432347746 2.72051127342e-05 0)
(0.000535162809108 2.55794640563e-05 0)
(0.000517116517058 2.39795403901e-05 0)
(0.000500168448406 2.24231868984e-05 0)
(0.000484290829704 2.09235329016e-05 0)
(0.000469447205289 1.94896827334e-05 0)
(0.000455594961071 1.81274081205e-05 0)
(0.000442687433968 1.68397972787e-05 0)
(0.000430675631499 1.56278351708e-05 0)
(0.000419509600132 1.44909037669e-05 0)
(0.000409139487589 1.34272009686e-05 0)
(0.000399516345461 1.24340829782e-05 0)
(0.000390592716384 1.15083382043e-05 0)
(0.000382323045859 1.06464021935e-05 0)
(0.000374663953815 9.84452322071e-06 0)
(0.000367574395693 9.09888759925e-06 0)
(0.000361015737796 8.40571283078e-06 0)
(0.000354951766965 7.7613156528e-06 0)
(0.00034934865049 7.16216099509e-06 0)
(0.000344174858572 6.60489691761e-06 0)
(0.00033940105852 6.08637981213e-06 0)
(0.000334999987199 5.60369352549e-06 0)
(0.000330946305908 5.15416561814e-06 0)
(0.000327216439829 4.7353836979e-06 0)
(0.000323788402333 4.34521468321e-06 0)
(0.000320641602707 3.98182993848e-06 0)
(0.000317756634246 3.64373951845e-06 0)
(0.000315115038124 3.32983924574e-06 0)
(0.000312699037064 3.0394750616e-06 0)
(0.000310491231847 2.77252999086e-06 0)
(0.000308474253543 2.52954009802e-06 0)
(0.000306630366059 2.31184668785e-06 0)
(0.000304941019142 2.12179204572e-06 0)
(0.000303386365176 1.9629633447e-06 0)
(0.000301944781512 1.84047932826e-06 0)
(0.000300592497771 1.76128495779e-06 0)
(0.000299303541082 1.73433887346e-06 0)
(0.000298050428627 1.77036113733e-06 0)
(0.000296806421597 1.88020582703e-06 0)
(0.000295550771812 2.06917062034e-06 0)
(0.000294278123132 2.31879945898e-06 0)
(0.000293005573185 2.53341002351e-06 0)
(0.00122192257571 0.000221235918709 0)
(0.00125336537017 0.000382672312925 0)
(0.00125100289235 0.000396158805207 0)
(0.00121327075473 0.000356328506143 0)
(0.00115519375788 0.000304523293777 0)
(0.00108917686204 0.000255242136431 0)
(0.00102269456127 0.000212639732726 0)
(0.00095970825927 0.000177132953013 0)
(0.000902043713408 0.000147927973689 0)
(0.000850321501969 0.000123963698571 0)
(0.00080452178029 0.000104240853338 0)
(0.000764310374713 8.79154254218e-05 0)
(0.000729220557279 7.43056198611e-05 0)
(0.000698750797109 6.28708699506e-05 0)
(0.000672414777827 5.31851974299e-05 0)
(0.000649764867531 4.49127219107e-05 0)
(0.000630401180542 3.77874395312e-05 0)
(0.000613973087719 3.15972934108e-05 0)
(0.000600176994673 2.6171896764e-05 0)
(0.000588752478799 2.13731592718e-05 0)
(0.000579477901001 1.70881475539e-05 0)
(0.000572166063106 1.32236385424e-05 0)
(0.000566660181092 9.7019477878e-06 0)
(0.000562830281003 6.45771745337e-06 0)
(0.000560570038323 3.43542921286e-06 0)
(0.000559794038057 5.87468488418e-07 0)
(0.000560435412464 -2.12738798919e-06 0)
(0.000562443803428 -4.7451477255e-06 0)
(0.000565783598287 -7.29752457385e-06 0)
(0.000570432389089 -9.81265140385e-06 0)
(0.000576379602143 -1.2315611251e-05 0)
(0.000583625247308 -1.48288121955e-05 0)
(0.000592178737167 -1.73722199204e-05 0)
(0.000602057724984 -1.99634538701e-05 0)
(0.000613286908099 -2.26177464984e-05 0)
(0.000625896740056 -2.53477598778e-05 0)
(0.000639921990668 -2.81632500879e-05 0)
(0.000655400088781 -3.10705675595e-05 0)
(0.000672369178614 -3.40719817485e-05 0)
(0.000690865818274 -3.71648220732e-05 0)
(0.000710922250142 -4.03404355498e-05 0)
(0.000732563179434 -4.35829765568e-05 0)
(0.00075580201236 -4.68680675905e-05 0)
(0.000780636532132 -5.01614028419e-05 0)
(0.000807044033367 -5.34174091675e-05 0)
(0.00083497599606 -5.6578128787e-05 0)
(0.000864352460736 -5.95725386759e-05 0)
(0.000895056364455 -6.23165614139e-05 0)
(0.000926928205469 -6.47140352944e-05 0)
(0.000959761507967 -6.6658879243e-05 0)
(0.000993299635692 -6.80385970751e-05 0)
(0.00102723452891 -6.87391153018e-05 0)
(0.00106120789129 -6.86507612785e-05 0)
(0.0010948152236 -6.7675007479e-05 0)
(0.00112761290319 -6.57314847142e-05 0)
(0.00115912827657 -6.27647318556e-05 0)
(0.00118887250525 -5.87501858752e-05 0)
(0.0012163557051 -5.36989628335e-05 0)
(0.00124110373684 -4.76609782421e-05 0)
(0.0012626758132 -4.07259022692e-05 0)
(0.00128068187705 -3.30214170265e-05 0)
(0.00129479850554 -2.47083400154e-05 0)
(0.00130478197319 -1.59724638326e-05 0)
(0.00131047713713 -7.01346486833e-06 0)
(0.0013118210798 1.96803142661e-06 0)
(0.00130884106101 1.07832840031e-05 0)
(0.0013016472959 1.92656709936e-05 0)
(0.00129042208125 2.7276483959e-05 0)
(0.00127540734474 3.4705831712e-05 0)
(0.00125689252395 4.14697714418e-05 0)
(0.0012352039354 4.75057365495e-05 0)
(0.00121069591005 5.27682021448e-05 0)
(0.00118374332432 5.72257935149e-05 0)
(0.00115473486209 6.08602090266e-05 0)
(0.0011240663523 6.36666685175e-05 0)
(0.00109213374006 6.56551898968e-05 0)
(0.00105932556821 6.68518453838e-05 0)
(0.00102601517526 6.72992304926e-05 0)
(0.000992553073631 6.70556397879e-05 0)
(0.000959260100473 6.61928032771e-05 0)
(0.000926421910675 6.47923960983e-05 0)
(0.000894285228398 6.2941797686e-05 0)
(0.00086305604272 6.07296867289e-05 0)
(0.000832899691736 5.82420138569e-05 0)
(0.000803942583111 5.55587410637e-05 0)
(0.000776275177979 5.2751542161e-05 0)
(0.000749955822606 4.98824796678e-05 0)
(0.000725015033004 4.70035447302e-05 0)
(0.000701459898709 4.41568765691e-05 0)
(0.000679278350879 4.13754585652e-05 0)
(0.000658443119771 3.8684103258e-05 0)
(0.000638915277275 3.61005723292e-05 0)
(0.000620647316652 3.36367172056e-05 0)
(0.000603585763154 3.12995633952e-05 0)
(0.000587673337196 2.90922928025e-05 0)
(0.000572850708731 2.70151019602e-05 0)
(0.000559057890034 2.50659306349e-05 0)
(0.000546235316756 2.32410659129e-05 0)
(0.000534324665855 2.15356329715e-05 0)
(0.000523269455344 1.99439866627e-05 0)
(0.000513015465952 1.84600188204e-05 0)
(0.000503511019393 1.70773956996e-05 0)
(0.000494707142635 1.57897387477e-05 0)
(0.000486557642484 1.45907603842e-05 0)
(0.000479019110248 1.34743649058e-05 0)
(0.000472050872173 1.24347231609e-05 0)
(0.000465614897782 1.146632837e-05 0)
(0.00045967567518 1.05640394162e-05 0)
(0.000454200059726 9.7231171372e-06 0)
(0.000449157100176 8.93925858506e-06 0)
(0.000444517844422 8.20863391286e-06 0)
(0.000440255125264 7.52793042963e-06 0)
(0.000436343325268 6.8944084684e-06 0)
(0.000432758118784 6.30597391587e-06 0)
(0.000429476188743 5.76127251982e-06 0)
(0.000426474916386 5.25981113329e-06 0)
(0.000423732044143 4.8021105124e-06 0)
(0.000421225316691 4.38989218709e-06 0)
(0.000418932114561 4.02629652586e-06 0)
(0.000416829111735 3.71611652426e-06 0)
(0.00041489201827 3.46600406056e-06 0)
(0.000413095518292 3.28454462212e-06 0)
(0.000411413591694 3.18196305159e-06 0)
(0.000409820518347 3.16892318156e-06 0)
(0.000408292976614 3.25319282585e-06 0)
(0.000406813516872 3.43129329818e-06 0)
(0.000405374170852 3.66867153177e-06 0)
(0.000403971857903 3.85840084762e-06 0)
(0.00121692337806 0.000182389963491 0)
(0.00124904389036 0.000357954957007 0)
(0.00126556754526 0.000406714978316 0)
(0.00125568439548 0.000393387614906 0)
(0.00122517312364 0.000356052448256 0)
(0.00118234609455 0.000312556901444 0)
(0.00113375460857 0.000270398749015 0)
(0.00108377485659 0.00023233998524 0)
(0.00103509491515 0.000199065423314 0)
(0.000989246190367 0.000170397179721 0)
(0.000947011946392 0.000145841332429 0)
(0.000908709841575 0.000124828451356 0)
(0.000874378392558 0.000106813855074 0)
(0.000843896759078 9.1314023164e-05 0)
(0.000817060169679 7.79146477721e-05 0)
(0.000793626512642 6.62668338915e-05 0)
(0.0007733444631 5.60790592038e-05 0)
(0.000755969925299 4.71082996379e-05 0)
(0.00074127516279 3.91517415375e-05 0)
(0.000729053412032 3.2039576769e-05 0)
(0.000719120753951 2.56289617911e-05 0)
(0.000711316362432 1.97990498146e-05 0)
(0.000705501829771 1.44469475536e-05 0)
(0.000701560002284 9.48444192254e-06 0)
(0.000699393589603 4.83535708941e-06 0)
(0.000698923703358 4.33424467451e-07 0)
(0.000700088411616 -3.77942889706e-06 0)
(0.000702841350069 -7.8544380704e-06 0)
(0.000707150409354 -1.18370897451e-05 0)
(0.000712996496499 -1.57679650504e-05 0)
(0.000720372350264 -1.96833647557e-05 0)
(0.000729281385565 -2.36157389152e-05 0)
(0.000739736534385 -2.75939310267e-05 0)
(0.000751759043903 -3.16432386019e-05 0)
(0.000765377186311 -3.57852851163e-05 0)
(0.000780624828591 -4.00376926223e-05 0)
(0.000797539804446 -4.44135402103e-05 0)
(0.000816162024827 -4.89205915882e-05 0)
(0.000836531258787 -5.35602764182e-05 0)
(0.000858684513733 -5.83264161603e-05 0)
(0.000882652945071 -6.32036980713e-05 0)
(0.000908458232068 -6.81659229957e-05 0)
(0.000936108372163 -7.3174086139e-05 0)
(0.000965592873688 -7.81743968969e-05 0)
(0.000996877370813 -8.3096404174e-05 0)
(0.00102989774825 -8.78514640791e-05 0)
(0.00106455394921 -9.23318587548e-05 0)
(0.00110070374716 -9.64109324148e-05 0)
(0.00113815688302 -9.99446303974e-05 0)
(0.00117667008943 -0.000102774782253 0)
(0.00121594361733 -0.000104734339032 0)
(0.00125561991634 -0.000105654555256 0)
(0.00129528507015 -0.000105373827721 0)
(0.00133447343762 -0.000103747631704 0)
(0.00137267571658 -0.000100658810767 0)
(0.00140935037495 -9.60274302371e-05 0)
(0.00144393813922 -8.98194741191e-05 0)
(0.00147587902335 -8.20537532677e-05 0)
(0.00150463120506 -7.28063969511e-05 0)
(0.00152969086117 -6.22122126495e-05 0)
(0.00155061183433 -5.04621411606e-05 0)
(0.00156702375689 -3.77961652641e-05 0)
(0.00157864708298 -2.44914314574e-05 0)
(0.00158530345743 -1.08460355679e-05 0)
(0.0015869200804 2.84003568985e-06 0)
(0.00158352738786 1.6283989367e-05 0)
(0.0015752505608 2.92355551074e-05 0)
(0.00156229673053 4.1485641016e-05 0)
(0.00154494051419 5.28676226239e-05 0)
(0.00152351024117 6.32530682987e-05 0)
(0.00149837617798 7.25450842001e-05 0)
(0.00146994091149 8.06721379307e-05 0)
(0.00143863130135 8.75840440879e-05 0)
(0.00140489113858 9.32505728981e-05 0)
(0.00136917372197 9.76622195964e-05 0)
(0.00133193385164 0.000100832109179 0)
(0.00129361913048 0.000102797806329 0)
(0.00125466085538 0.000103621924417 0)
(0.00121546508032 0.000103390809163 0)
(0.00117640457509 0.00010221109888 0)
(0.00113781236283 0.000100204489275 0)
(0.0010999773221 9.75014145591e-05 0)
(0.0010631420538 9.42345112946e-05 0)
(0.0010275029252 9.05326569071e-05 0)
(0.000993211976831 8.651614367e-05 0)
(0.000960380249175 8.22932617257e-05 0)
(0.000929082048955 7.79583058429e-05 0)
(0.00089935971065 7.35908374069e-05 0)
(0.000871228484898 6.9255935692e-05 0)
(0.000844681277695 6.50051470381e-05 0)
(0.000819693053503 6.08778634448e-05 0)
(0.000796224791953 5.6902910322e-05 0)
(0.000774226947636 5.31001790295e-05 0)
(0.000753642405811 4.94821924764e-05 0)
(0.000734408955841 4.60555358938e-05 0)
(0.00071646132167 4.28221183659e-05 0)
(0.000699732797691 3.97802543382e-05 0)
(0.000684156541352 3.69255697811e-05 0)
(0.000669666572939 3.42517468467e-05 0)
(0.000656198529584 3.17511255109e-05 0)
(0.000643690215884 2.94151823056e-05 0)
(0.000632081988279 2.72349059592e-05 0)
(0.000621317005025 2.52010883815e-05 0)
(0.000611341368531 2.33045475393e-05 0)
(0.000602104182177 2.15362967103e-05 0)
(0.000593557539542 1.98876726311e-05 0)
(0.000585656460278 1.83504332818e-05 0)
(0.000578358783704 1.69168345431e-05 0)
(0.000571625028383 1.55796937578e-05 0)
(0.000565418223655 1.43324473004e-05 0)
(0.000559703717124 1.31692086049e-05 0)
(0.000554448960533 1.2084832654e-05 0)
(0.000549623275333 1.10749926335e-05 0)
(0.00054519759861 1.01362741595e-05 0)
(0.000541144210147 9.26629197664e-06 0)
(0.000537436442459 8.46383289874e-06 0)
(0.000534048378303 7.72902629059e-06 0)
(0.000530954545029 7.06353823185e-06 0)
(0.000528129623504 6.47077517335e-06 0)
(0.000525548202531 5.95606263461e-06 0)
(0.000523184629692 5.52672511484e-06 0)
(0.000521013037405 5.19191657301e-06 0)
(0.000519007656316 4.96189938966e-06 0)
(0.00051714354972 4.8461672322e-06 0)
(0.000515397839877 4.84920064233e-06 0)
(0.000513751086906 4.96149834996e-06 0)
(0.000512186894372 5.14200509119e-06 0)
(0.000510684218026 5.29005659133e-06 0)
(0.00121283592601 0.000152630657906 0)
(0.00124168112164 0.000326748550124 0)
(0.00126569855886 0.000397380287137 0)
(0.00127195833286 0.000406345676149 0)
(0.00126071956631 0.000384844419773 0)
(0.00123662286384 0.000350688655849 0)
(0.00120450400696 0.000312977331813 0)
(0.00116819449902 0.000276050656693 0)
(0.00113042871838 0.000241800468269 0)
(0.00109304639166 0.00021089318059 0)
(0.00105722629034 0.000183399671203 0)
(0.00102368149723 0.000159117004883 0)
(0.000992806661917 0.000137731580304 0)
(0.00096478411589 0.00011890047193 0)
(0.000939658481848 0.000102290417016 0)
(0.000917388296432 8.75949017631e-05 0)
(0.000897881277572 7.45400545079e-05 0)
(0.000881018126955 6.28849876531e-05 0)
(0.000866668376585 5.24195614464e-05 0)
(0.000854700757353 4.29611220599e-05 0)
(0.000844989821844 3.43510054848e-05 0)
(0.000837420023772 2.64511913155e-05 0)
(0.00083188808398 1.91412743413e-05 0)
(0.000828304212867 1.23158098293e-05 0)
(0.000826592578103 5.88203301048e-06 0)
(0.000826691280816 -2.42071219419e-07 0)
(0.000828552013338 -6.12937693863e-06 0)
(0.000832139511856 -1.1844929562e-05 0)
(0.000837430881085 -1.7447028909e-05 0)
(0.000844414829783 -2.29880634138e-05 0)
(0.000853090830009 -2.85151215751e-05 0)
(0.000863468201888 -3.40703899351e-05 0)
(0.000875565110984 -3.9691338014e-05 0)
(0.000889407454066 -4.54106837017e-05 0)
(0.000905027599131 -5.12561263388e-05 0)
(0.000922462936689 -5.72498294196e-05 0)
(0.000941754191102 -6.34076311672e-05 0)
(0.000962943433409 -6.97379600876e-05 0)
(0.000986071730965 -7.62404354714e-05 0)
(0.00101117636523 -8.29041416118e-05 0)
(0.0010382875486 -8.97055818701e-05 0)
(0.00106742457624 -9.66063476409e-05 0)
(0.00109859136259 -0.000103550581034 0)
(0.00113177133785 -0.000110462371179 0)
(0.00116692172215 -0.000117243303071 0)
(0.00120396725942 -0.000123770471054 0)
(0.00124279358176 -0.000129895365742 0)
(0.00128324049111 -0.000135444122993 0)
(0.00132509558111 -0.000140219655668 0)
(0.00136808876339 -0.000144006135553 0)
(0.00141188838094 -0.000146576121098 0)
(0.00145609964635 -0.000147700327774 0)
(0.00150026609631 -0.00014715964957 0)
(0.00154387458256 -0.000144758654783 0)
(0.00158636404241 -0.000140339518492 0)
(0.00162713797093 -0.000133795302296 0)
(0.00166558023229 -0.000125081621567 0)
(0.00170107364652 -0.000114225899049 0)
(0.00173302063635 -0.000101333418565 0)
(0.00176086503309 -8.65892406424e-05 0)
(0.00178411386443 -7.0254915273e-05 0)
(0.00180235763099 -5.26590786456e-05 0)
(0.00181528732996 -3.41815422372e-05 0)
(0.00182270638 -1.52313491015e-05 0)
(0.00182453573499 3.77937069578e-06 0)
(0.00182081113917 2.24619413373e-05 0)
(0.00181167297506 4.04725920228e-05 0)
(0.00179735105645 5.75243497092e-05 0)
(0.00177814782458 7.33883577969e-05 0)
(0.00175442294258 8.78874826794e-05 0)
(0.00172658072864 0.000100886940296 0)
(0.00169506033783 0.000112285931341 0)
(0.00166032774572 0.000122012444042 0)
(0.00162286837684 0.00013002169471 0)
(0.00158317939956 0.00013629748094 0)
(0.00154176110075 0.000140855005523 0)
(0.00149910724283 0.0001437434771 0)
(0.00145569478135 0.00014504697792 0)
(0.00141197367911 0.000144882620488 0)
(0.00136835771348 0.000143395745971 0)
(0.00132521710721 0.000140752648437 0)
(0.00128287355486 0.000137131836543 0)
(0.00124159785755 0.000132715043432 0)
(0.00120161002834 0.000127679071679 0)
(0.00116308147123 0.000122189224104 0)
(0.00112613870152 0.000116394669099 0)
(0.0010908680539 0.000110425737513 0)
(0.00105732088267 0.000104392907243 0)
(0.00102551885754 9.83871095021e-05 0)
(0.00099545906709 9.24809644263e-05 0)
(0.000967118742397 8.67305892502e-05 0)
(0.000940459494708 8.11776888014e-05 0)
(0.000915431022725 7.58517126023e-05 0)
(0.00089197428796 7.07719319114e-05 0)
(0.000870024184412 6.5949347016e-05 0)