/*--------------------------------*- C++ -*----------------------------------*\
  =========                 |
  \\      /  F ield         | OpenFOAM: The Open Source CFD Toolbox
   \\    /   O peration     | Website:  https://openfoam.org
    \\  /    A nd           | Version:  7
     \\/     M anipulation  |
\*---------------------------------------------------------------------------*/
FoamFile
{
    version     2.0;
    format      ascii;
    class       volScalarField;
    location    "1380";
    object      Ci;
}
// * * * * * * * * * * * * * * * * * * * * * * * * * * * * * * * * * * * * * //

dimensions      [0 -3 0 0 1 0 0];

internalField   nonuniform List<scalar> 
8192
(
9.99999999886
10.000000004
10.0000000111
10.00000002
10.0000000312
10.000000044
10.0000000575
10.0000000716
10.0000000861
10.0000001008
10.0000001157
10.0000001304
10.0000001449
10.0000001589
10.0000001724
10.000000185
10.0000001968
10.0000002074
10.0000002168
10.0000002246
10.0000002308
10.000000235
10.0000002371
10.0000002369
10.0000002345
10.0000002298
10.0000002227
10.0000002132
10.0000002015
10.0000001873
10.000000171
10.0000001525
10.0000001322
10.0000001104
10.0000000879
10.0000000649
10.0000000424
10.0000000206
10.0000000005
9.99999998217
9.9999999665
9.99999995341
9.99999994348
9.99999993637
9.99999993239
9.99999993091
9.99999993202
9.99999993483
9.99999993928
9.9999999443
9.99999994975
9.99999995445
9.9999999582
9.99999995972
9.99999995875
9.99999995392
9.99999994496
9.99999993051
9.99999991041
9.9999998835
9.99999984992
9.99999980892
9.99999976112
9.99999970624
9.99999964541
9.99999957882
9.99999950799
9.99999943338
9.99999935676
9.99999927877
9.99999920132
9.99999912522
9.99999905247
9.99999898394
9.99999892156
9.99999886604
9.99999881903
9.99999878081
9.99999875254
9.99999873402
9.99999872585
9.99999872737
9.99999873869
9.99999875877
9.99999878734
9.99999882312
9.99999886565
9.99999891357
9.9999989664
9.99999902292
9.9999990828
9.99999914506
9.99999920957
9.99999927569
9.99999934357
9.99999941305
9.99999948479
9.99999955892
9.99999963619
9.99999971685
9.99999980163
9.99999989083
9.99999998514
10.0000000848
10.0000001903
10.0000003019
10.00000042
10.0000005446
10.0000006759
10.0000008139
10.0000009585
10.0000011096
10.0000012671
10.0000014306
10.0000015998
10.0000017742
10.0000019535
10.000002137
10.0000023245
10.0000025152
10.0000027086
10.000002904
10.0000031006
10.0000032967
10.0000034898
10.0000036745
10.0000038388
10.0000039505
10.0000000006
10.0000000063
10.0000000122
10.0000000193
10.000000028
10.0000000382
10.0000000498
10.0000000625
10.000000076
10.0000000901
10.0000001047
10.0000001195
10.0000001345
10.0000001493
10.0000001639
10.0000001781
10.0000001916
10.0000002042
10.0000002159
10.0000002263
10.0000002353
10.0000002423
10.0000002475
10.0000002506
10.0000002518
10.000000251
10.0000002481
10.000000243
10.000000236
10.0000002269
10.0000002158
10.0000002025
10.0000001876
10.0000001714
10.0000001547
10.0000001378
10.0000001216
10.0000001064
10.000000093
10.0000000816
10.0000000727
10.0000000662
10.0000000625
10.0000000611
10.000000062
10.0000000643
10.0000000678
10.0000000715
10.0000000749
10.0000000769
10.000000077
10.0000000742
10.0000000679
10.0000000571
10.0000000415
10.0000000201
9.9999999928
9.99999995878
9.9999999181
9.99999987029
9.99999981566
9.99999975402
9.99999968598
9.99999961169
9.99999953213
9.99999944778
9.99999935999
9.9999992696
9.9999991783
9.99999908728
9.99999899848
9.99999891325
9.99999883353
9.99999876053
9.9999986959
9.99999864046
9.9999985954
9.99999856101
9.99999853794
9.99999852592
9.99999852508
9.99999853469
9.99999855444
9.99999858327
9.99999862058
9.99999866516
9.9999987163
9.99999877277
9.99999883392
9.99999889864
9.99999896647
9.99999903656
9.99999910865
9.99999918219
9.99999925717
9.99999933374
9.99999941263
9.99999949401
9.99999957848
9.99999966632
9.99999975818
9.99999985436
9.99999995547
10.0000000618
10.0000001738
10.0000002917
10.0000004158
10.0000005462
10.0000006831
10.0000008263
10.0000009761
10.000001132
10.0000012941
10.0000014619
10.0000016351
10.0000018133
10.0000019961
10.0000021829
10.0000023733
10.0000025667
10.0000027626
10.0000029602
10.0000031588
10.0000033571
10.0000035533
10.0000037438
10.0000039244
10.0000040582
10.0000000007
10.0000000074
10.0000000131
10.0000000187
10.0000000256
10.0000000337
10.0000000432
10.000000054
10.0000000661
10.0000000794
10.0000000938
10.0000001091
10.0000001252
10.0000001418
10.0000001587
10.0000001759
10.000000193
10.0000002099
10.0000002264
10.0000002423
10.0000002575
10.0000002718
10.000000285
10.0000002971
10.0000003081
10.0000003177
10.0000003261
10.000000333
10.0000003388
10.0000003432
10.0000003466
10.0000003488
10.0000003507
10.0000003518
10.0000003534
10.0000003549
10.0000003576
10.0000003609
10.0000003659
10.000000372
10.0000003799
10.0000003891
10.0000004
10.0000004117
10.0000004244
10.0000004372
10.00000045
10.0000004616
10.0000004718
10.0000004793
10.0000004837
10.0000004837
10.0000004786
10.0000004671
10.0000004486
10.0000004218
10.0000003862
10.0000003406
10.0000002848
10.0000002181
10.0000001406
10.000000052
9.99999995307
9.99999984409
9.99999972648
9.99999960115
9.9999994702
9.99999933517
9.99999919869
9.99999906276
9.99999893028
9.99999880331
9.99999868461
9.99999857587
9.99999847926
9.99999839581
9.99999832693
9.99999827286
9.99999823422
9.99999821054
9.99999820174
9.99999820679
9.99999822513
9.9999982554
9.99999829679
9.99999834781
9.99999840761
9.99999847475
9.99999854847
9.99999862755
9.99999871142
9.99999879912
9.99999889033
9.99999898436
9.99999908115
9.99999918029
9.99999928205
9.99999938646
9.99999949401
9.99999960489
9.99999971969
9.9999998386
9.99999996216
10.0000000905
10.0000002242
10.0000003632
10.0000005078
10.0000006581
10.0000008141
10.0000009758
10.000001143
10.0000013157
10.0000014935
10.0000016761
10.0000018632
10.0000020542
10.0000022488
10.0000024464
10.0000026464
10.0000028481
10.0000030512
10.0000032546
10.0000034577
10.000003659
10.0000038582
10.0000040497
10.0000042464
10.0000043661
10.0000000006
10.0000000084
10.0000000141
10.0000000196
10.0000000261
10.0000000338
10.0000000428
10.0000000532
10.0000000651
10.0000000786
10.0000000937
10.0000001103
10.0000001283
10.0000001476
10.000000168
10.0000001892
10.0000002113
10.0000002338
10.0000002568
10.0000002799
10.000000303
10.0000003259
10.0000003485
10.0000003706
10.0000003923
10.0000004132
10.0000004337
10.0000004532
10.0000004725
10.0000004906
10.000000509
10.0000005262
10.0000005444
10.0000005616
10.0000005807
10.0000005992
10.0000006205
10.0000006419
10.0000006663
10.0000006918
10.0000007203
10.0000007504
10.0000007831
10.0000008177
10.000000854
10.0000008915
10.0000009296
10.0000009673
10.0000010037
10.0000010374
10.0000010673
10.0000010918
10.0000011094
10.0000011184
10.0000011176
10.0000011052
10.0000010802
10.0000010414
10.000000988
10.0000009191
10.0000008348
10.0000007346
10.0000006191
10.0000004888
10.0000003448
10.0000001885
10.000000022
9.9999998474
9.99999966744
9.99999948493
9.99999930311
9.99999912501
9.99999895382
9.99999879229
9.99999864311
9.99999850834
9.99999838987
9.99999828891
9.99999820643
9.99999814274
9.99999809795
9.99999807154
9.99999806295
9.99999807111
9.99999809503
9.99999813336
9.99999818493
9.99999824836
9.99999832251
9.99999840614
9.9999984983
9.99999859798
9.99999870447
9.99999881703
9.99999893523
9.99999905855
9.99999918679
9.99999931979
9.9999994576
9.99999960026
9.99999974797
9.99999990079
10.0000000589
10.0000002224
10.0000003913
10.0000005655
10.0000007451
10.0000009299
10.0000011198
10.0000013144
10.0000015134
10.0000017165
10.0000019233
10.0000021333
10.0000023458
10.0000025604
10.0000027765
10.0000029933
10.0000032101
10.0000034264
10.0000036413
10.000003854
10.0000040639
10.0000042686
10.0000044715
10.0000046563
10.0000048774
10.0000049108
10.0000000008
10.00000001
10.0000000165
10.0000000221
10.0000000285
10.0000000363
10.0000000457
10.0000000563
10.0000000686
10.0000000826
10.0000000985
10.0000001162
10.0000001359
10.0000001573
10.0000001803
10.0000002048
10.0000002306
10.0000002575
10.0000002853
10.0000003138
10.0000003428
10.0000003719
10.0000004014
10.0000004305
10.0000004599
10.0000004884
10.0000005177
10.0000005454
10.0000005748
10.0000006019
10.0000006325
10.0000006596
10.0000006926
10.0000007212
10.0000007582
10.0000007904
10.0000008327
10.0000008709
10.0000009193
10.0000009657
10.0000010207
10.000001076
10.0000011374
10.0000012004
10.0000012666
10.000001334
10.0000014019
10.0000014686
10.0000015328
10.0000015926
10.0000016463
10.0000016922
10.0000017286
10.0000017538
10.0000017666
10.0000017655
10.0000017496
10.0000017182
10.0000016706
10.0000016064
10.0000015254
10.0000014276
10.0000013133
10.0000011827
10.0000010367
10.0000008762
10.0000007029
10.0000005185
10.0000003252
10.0000001255
9.99999992229
9.99999971838
9.99999951686
9.99999932055
9.99999913232
9.99999895465
9.99999878996
9.99999864021
9.99999850721
9.99999839221
9.99999829629
9.99999821997
9.99999816358
9.99999812698
9.9999981099
9.99999811168
9.99999813161
9.99999816875
9.99999822216
9.99999829077
9.99999837361
9.99999846965
9.99999857801
9.99999869778
9.9999988282
9.99999896851
9.99999911812
9.99999927642
9.99999944301
9.99999961745
9.99999979944
9.99999998863
10.0000001847
10.0000003874
10.0000005963
10.000000811
10.0000010311
10.000001256
10.0000014852
10.0000017181
10.0000019541
10.0000021925
10.0000024325
10.0000026735
10.0000029145
10.0000031549
10.0000033938
10.0000036304
10.0000038639
10.0000040934
10.0000043183
10.0000045372
10.0000047508
10.0000049539
10.0000051577
10.000005325
10.0000055689
10.0000055308
10.0000000007
10.0000000111
10.0000000183
10.0000000243
10.0000000312
10.0000000395
10.0000000494
10.0000000611
10.0000000741
10.000000089
10.0000001057
10.0000001245
10.0000001452
10.000000168
10.0000001926
10.000000219
10.0000002469
10.0000002761
10.0000003066
10.0000003378
10.0000003701
10.0000004023
10.0000004356
10.0000004681
10.0000005023
10.0000005342
10.0000005699
10.0000006009
10.0000006396
10.0000006696
10.0000007137
10.0000007432
10.0000007955
10.0000008258
10.0000008884
10.0000009225
10.0000009957
10.0000010379
10.0000011195
10.0000011743
10.0000012609
10.0000013299
10.0000014184
10.0000014983
10.0000015862
10.0000016702
10.000001754
10.0000018334
10.0000019077
10.0000019748
10.0000020331
10.0000020812
10.0000021178
10.0000021419
10.0000021528
10.0000021498
10.0000021326
10.0000021011
10.0000020551
10.0000019948
10.0000019202
10.0000018312
10.0000017281
10.0000016109
10.0000014801
10.0000013362
10.00000118
10.0000010128
10.000000836
10.0000006513
10.0000004608
10.0000002667
10.0000000711
9.99999987621
9.99999968428
9.99999949735
9.99999931754
9.99999914681
9.99999898712
9.99999884024
9.99999870785
9.99999859138
9.99999849214
9.99999841111
9.99999834914
9.99999830673
9.99999828424
9.99999828171
9.99999829907
9.99999833598
9.99999839205
9.99999846668
9.99999855926
9.99999866904
9.99999879528
9.99999893714
9.99999909381
9.99999926439
9.99999944805
9.9999996439
9.9999998511
10.0000000688
10.000000296
10.0000005319
10.0000007756
10.0000010261
10.0000012824
10.0000015435
10.0000018084
10.000002076
10.0000023452
10.000002615
10.0000028843
10.0000031519
10.0000034168
10.000003678
10.0000039344
10.000004185
10.0000044289
10.0000046652
10.0000048933
10.0000051114
10.0000053215
10.0000055151
10.0000057129
10.0000058559
10.0000061016
10.000006032
10.0000000007
10.0000000122
10.0000000204
10.0000000268
10.0000000338
10.0000000425
10.000000053
10.0000000655
10.0000000798
10.0000000957
10.0000001134
10.0000001331
10.0000001548
10.0000001785
10.0000002041
10.0000002313
10.0000002602
10.0000002903
10.0000003218
10.0000003537
10.0000003872
10.0000004198
10.0000004553
10.0000004874
10.0000005256
10.0000005559
10.0000005992
10.000000626
10.0000006788
10.0000006997
10.0000007684
10.0000007804
10.0000008722
10.0000008736
10.0000009929
10.000000986
10.0000011302
10.0000011239
10.0000012811
10.0000012898
10.0000014421
10.0000014777
10.0000016108
10.0000016735
10.0000017828
10.0000018601
10.0000019486
10.0000020234
10.0000020933
10.0000021532
10.0000022031
10.0000022417
10.0000022687
10.0000022835
10.000002286
10.0000022763
10.0000022545
10.000002221
10.0000021759
10.0000021195
10.0000020518
10.0000019731
10.000001883
10.0000017818
10.0000016694
10.0000015461
10.0000014125
10.0000012694
10.0000011179
10.0000009594
10.0000007954
10.0000006275
10.0000004572
10.000000286
10.0000001153
9.99999994622
9.9999997802
9.99999961852
9.99999946261
9.99999931392
9.99999917402
9.99999904448
9.99999892696
9.99999882306
9.99999873434
9.99999866223
9.99999860804
9.99999857287
9.99999855761
9.99999856294
9.9999985893
9.99999863692
9.9999987058
9.99999879574
9.99999890634
9.99999903703
9.99999918706
9.99999935557
9.99999954153
9.99999974382
9.99999996124
10.0000001925
10.0000004362
10.0000006909
10.0000009552
10.0000012276
10.0000015065
10.0000017904
10.0000020777
10.0000023669
10.0000026565
10.0000029449
10.0000032307
10.0000035125
10.0000037889
10.0000040586
10.0000043204
10.0000045733
10.0000048159
10.0000050476
10.0000052676
10.0000054743
10.0000056702
10.0000058453
10.0000060243
10.0000061423
10.0000063594
10.0000062931
10.0000000005
10.0000000127
10.0000000215
10.0000000285
10.000000036
10.000000045
10.0000000562
10.0000000695
10.0000000849
10.0000001022
10.0000001212
10.000000142
10.0000001647
10.0000001893
10.0000002156
10.0000002433
10.0000002728
10.0000003028
10.0000003349
10.0000003659
10.0000004005
10.0000004311
10.0000004691
10.0000004969
10.0000005417
10.0000005631
10.0000006214
10.0000006297
10.0000007138
10.0000006977
10.0000008258
10.0000007692
10.0000009634
10.000000849
10.000001127
10.0000009471
10.0000013076
10.0000010778
10.0000014874
10.0000012538
10.000001649
10.0000014723
10.0000017884
10.0000017076
10.0000019164
10.0000019218
10.0000020426
10.0000020896
10.0000021592
10.000002207
10.0000022483
10.0000022783
10.0000022973
10.0000023055
10.000002303
10.0000022902
10.0000022673
10.0000022349
10.0000021931
10.0000021422
10.0000020822
10.0000020129
10.0000019341
10.0000018456
10.0000017473
10.0000016393
10.0000015222
10.0000013967
10.0000012641
10.0000011258
10.0000009833
10.0000008382
10.0000006917
10.0000005453
10.0000003992
10.000000254
10.0000001106
9.99999997001
9.99999983309
9.99999970074
9.99999957404
9.99999945402
9.99999934213
9.99999923949
9.99999914756
9.99999906812
9.99999900301
9.99999895393
9.99999892247
9.99999891001
9.99999891777
9.99999894665
9.99999899734
9.99999907019
9.99999916532
9.99999928252
9.99999942133
9.99999958105
9.99999976071
9.99999995916
10.000000175
10.0000004068
10.0000006529
10.0000009115
10.0000011808
10.0000014588
10.0000017436
10.0000020333
10.0000023259
10.0000026195
10.0000029121
10.000003202
10.0000034874
10.0000037667
10.0000040381
10.0000043005
10.0000045522
10.0000047924
10.0000050195
10.0000052333
10.0000054321
10.000005616
10.0000057853
10.0000059341
10.0000060799
10.0000061743
10.0000063368
10.0000062925
10.0000000006
10.0000000135
10.000000023
10.0000000303
10.0000000378
10.0000000471
10.0000000587
10.0000000727
10.000000089
10.0000001076
10.0000001279
10.0000001499
10.0000001738
10.0000001992
10.0000002264
10.0000002544
10.0000002846
10.0000003139
10.0000003468
10.0000003757
10.0000004123
10.000000438
10.0000004817
10.0000004993
10.0000005583
10.0000005577
10.000000649
10.0000006108
10.0000007649
10.0000006541
10.0000009206
10.0000006821
10.0000011293
10.0000006932
10.0000013932
10.0000006991
10.0000016895
10.000000735
10.0000019641
10.0000008553
10.0000021496
10.0000010992
10.0000022124
10.0000014437
10.0000021919
10.0000017961
10.0000021733
10.0000020612
10.0000022054
10.0000022146
10.0000022639
10.0000022878
10.0000023046
10.0000023117
10.000002309
10.0000022978
10.0000022779
10.00000225
10.0000022142
10.0000021705
10.0000021186
10.000002058
10.0000019884
10.0000019093
10.0000018202
10.0000017215
10.0000016133
10.0000014969
10.0000013735
10.0000012454
10.0000011136
10.0000009811
10.0000008473
10.0000007138
10.000000582
10.0000004529
10.0000003272
10.0000002052
10.0000000876
9.99999997456
9.99999986669
9.99999976461
9.99999966912
9.99999958127
9.99999950215
9.99999943314
9.99999937564
9.99999933101
9.99999930113
9.99999928782
9.99999929264
9.99999931694
9.99999936179
9.99999942795
9.99999951586
9.99999962563
9.99999975704
9.99999990954
10.0000000823
10.0000002742
10.0000004838
10.0000007096
10.0000009498
10.0000012024
10.0000014654
10.0000017367
10.0000020142
10.0000022955
10.0000025787
10.0000028614
10.0000031417
10.0000034176
10.0000036871
10.0000039486
10.0000042003
10.0000044409
10.0000046687
10.0000048833
10.0000050823
10.0000052671
10.0000054338
10.0000055863
10.0000057189
10.0000058366
10.000005938
10.0000060109
10.0000061044
10.0000060866
10.0000000004
10.0000000137
10.0000000237
10.0000000315
10.0000000394
10.0000000489
10.0000000607
10.0000000752
10.0000000924
10.0000001119
10.0000001335
10.0000001566
10.0000001818
10.000000208
10.0000002364
10.0000002645
10.0000002957
10.0000003239
10.0000003585
10.0000003839
10.0000004247
10.0000004422
10.0000004967
10.0000004959
10.0000005813
10.0000005402
10.0000006918
10.0000005654
10.0000008506
10.0000005538
10.00000109
10.0000004782
10.0000014477
10.0000003102
10.0000019487
10.0000000439
10.0000025695
9.99999973743
10.0000031968
9.99999954111
10.0000036264
9.99999965543
10.0000036635
10.0000001839
10.0000033012
10.0000009823
10.0000027895
10.0000017132
10.0000024348
10.0000021412
10.0000023235
10.0000023012
10.0000023306
10.0000023387
10.0000023389
10.000002332
10.0000023172
10.0000022961
10.0000022683
10.000002233
10.0000021895
10.0000021377
10.0000020772
10.0000020066
10.0000019243
10.00000183
10.0000017243
10.0000016098
10.0000014887
10.0000013637
10.0000012363
10.0000011067
10.0000009768
10.0000008484
10.0000007229
10.0000006015
10.000000485
10.0000003738
10.0000002684
10.000000169
10.0000000758
9.9999999892
9.99999990986
9.99999983842
9.99999977595
9.99999972325
9.99999968179
9.99999965217
9.99999963616
9.999999634
9.99999964786
9.99999967935
9.99999972968
9.99999979971
9.99999989
10.0000000007
10.0000001318
10.0000002826
10.0000004524
10.0000006401
10.0000008441
10.000001063
10.0000012948
10.0000015376
10.0000017892
10.0000020474
10.0000023101
10.0000025749
10.0000028396
10.0000031021
10.0000033602
10.0000036121
10.0000038558
10.0000040898
10.0000043122
10.0000045221
10.0000047174
10.0000048987
10.0000050625
10.0000052122
10.000005341
10.0000054583
10.0000055496
10.0000056352
10.0000056883
10.000005741
10.0000057649
10.0000057683
10.0000000006
10.0000000142
10.0000000247
10.0000000327
10.0000000407
10.0000000502
10.0000000622
10.0000000769
10.0000000947
10.0000001149
10.0000001376
10.0000001617
10.0000001881
10.000000215
10.0000002448
10.0000002728
10.0000003057
10.0000003321
10.0000003697
10.0000003901
10.0000004374
10.0000004436
10.0000005137
10.0000004877
10.0000006098
10.0000005124
10.0000007482
10.0000004966
10.0000009691
10.0000003986
10.0000013383
10.0000001469
10.0000019499
9.99999964233
10.0000029084
9.99999879418
10.0000042646
9.99999761367
10.0000058925
9.99999635255
10.000007366
9.99999556908
10.0000080185
9.99999590647
10.0000073508
9.99999752814
10.0000056058
9.99999973146
10.0000037789
10.0000014382
10.0000027221
10.0000022068
10.0000024171
10.0000023871
10.0000023975
10.0000023987
10.0000023915
10.000002381
10.0000023632
10.0000023351
10.0000023004
10.0000022633
10.0000022179
10.0000021494
10.0000020482
10.0000019184
10.0000017752
10.0000016352
10.0000015071
10.0000013919
10.0000012824
10.0000011734
10.0000010623
10.0000009487
10.0000008341
10.0000007206
10.0000006103
10.0000005048
10.0000004053
10.0000003125
10.0000002272
10.0000001496
10.0000000807
10.000000021
9.99999997173
9.99999993362
9.99999990814
9.99999989578
9.9999998979
9.99999991445
9.99999994663
9.99999999386
10.000000058
10.0000001402
10.000000241
10.0000003604
10.0000004981
10.0000006535
10.0000008256
10.0000010133
10.000001215
10.000001429
10.0000016534
10.0000018864
10.0000021256
10.000002369
10.0000026143
10.0000028595
10.0000031023
10.0000033407
10.0000035728
10.0000037967
10.0000040107
10.0000042135
10.0000044032
10.0000045795
10.0000047398
10.000004886
10.000005013
10.0000051273
10.0000052178
10.000005301
10.000005352
10.0000054076
10.0000054155
10.0000054494
10.0000054132
10.0000054281
10.0000000005
10.0000000143
10.0000000251
10.0000000335
10.0000000417
10.0000000513
10.0000000633
10.0000000782
10.0000000962
10.0000001169
10.0000001405
10.0000001653
10.000000193
10.0000002204
10.0000002517
10.0000002795
10.0000003144
10.0000003391
10.0000003797
10.0000003956
10.0000004492
10.000000445
10.0000005294
10.0000004805
10.0000006357
10.0000004876
10.0000007996
10.0000004329
10.0000010811
10.0000002456
10.0000015894
9.99999979093
10.0000025084
9.99999884496
10.0000041079
9.99999710594
10.0000066875
9.99999431548
10.0000103678
9.99999056915
10.0000146954
9.9999867589
10.0000182742
9.99998469455
10.0000190661
9.99998620399
10.0000159145
9.99999125463
10.0000102439
9.999997174
10.0000053182
10.0000009981
10.0000029934
10.0000023194
10.0000024977
10.0000024935
10.0000024984
10.0000025087
10.000002483
10.0000024531
10.0000024685
10.0000025023
10.0000024213
10.000002092
10.0000015128
10.0000008301
10.0000002483
9.99999990878
9.99999984277
9.99999997808
10.0000002071
10.0000004355
10.0000006073
10.0000007042
10.0000007328
10.0000007103
10.0000006549
10.0000005815
10.0000005008
10.0000004203
10.0000003452
10.0000002787
10.0000002229
10.0000001785
10.0000001464
10.0000001263
10.0000001189
10.0000001244
10.0000001438
10.0000001773
10.0000002262
10.0000002897
10.0000003693
10.0000004628
10.0000005737
10.0000007018
10.0000008467
10.0000010075
10.000001183
10.0000013719
10.0000015723
10.0000017826
10.0000020007
10.0000022247
10.0000024522
10.0000026814
10.00000291
10.0000031359
10.0000033572
10.000003572
10.0000037784
10.0000039751
10.0000041602
10.0000043329
10.0000044912
10.0000046356
10.000004763
10.0000048765
10.0000049696
10.0000050516
10.0000051078
10.0000051606
10.0000051764
10.0000052058
10.000005176
10.0000051923
10.0000051098
10.000005127
10.0000000007
10.0000000146
10.0000000255
10.0000000341
10.0000000424
10.0000000519
10.0000000639
10.0000000788
10.000000097
10.0000001179
10.000000142
10.0000001673
10.0000001961
10.0000002241
10.0000002567
10.0000002847
10.000000321
10.000000345
10.0000003873
10.0000004013
10.0000004571
10.0000004495
10.0000005374
10.0000004829
10.0000006446
10.0000004861
10.0000008135
10.0000004214
10.0000011136
10.0000002017
10.0000016837
9.99999964193
10.000002791
9.99999838375
10.0000049128
9.9999958154
10.0000087889
9.99999108476
10.0000152852
9.99998343983
10.0000247922
9.99997316084
10.0000359642
9.99996293958
10.0000445965
9.99995818385
10.0000448395
9.99996379511
10.0000343294
9.99997824356
10.000018784
9.99999280972
10.000007419
10.000000602
10.0000031234
10.0000025697
10.0000026758
10.0000026467
10.0000025113
10.0000027151
10.0000031959
10.0000029628
10.0000006261
9.99999564158
9.99998897295
9.99998260841
9.99997844985
9.99997742471
9.99997928931
9.99998301756
9.99998740033
9.99999148678
9.9999947629
9.99999710442
9.99999862644
9.99999953511
10.0000000317
10.0000002709
10.000000356
10.0000003504
10.0000002931
10.0000002106
10.0000001236
10.000000048
9.99999999566
9.99999997286
9.99999998138
10.0000000189
10.0000000817
10.0000001649
10.0000002648
10.0000003778
10.000000502
10.0000006363
10.0000007793
10.0000009325
10.0000010977
10.0000012748
10.0000014631
10.0000016614
10.0000018684
10.0000020822
10.0000023008
10.0000025223
10.0000027443
10.000002965
10.0000031821
10.0000033937
10.0000035979
10.0000037933
10.000003978
10.0000041509
10.0000043106
10.0000044566
10.0000045871
10.0000047031
10.0000048012
10.0000048858
10.0000049494
10.0000050032
10.00000503
10.0000050566
10.0000050435
10.0000050501
10.0000049908
10.0000049904
10.0000048748
10.0000048867
10.0000000006
10.0000000147
10.0000000257
10.0000000345
10.000000043
10.0000000525
10.0000000644
10.0000000791
10.0000000972
10.0000001181
10.0000001425
10.0000001682
10.0000001977
10.0000002265
10.0000002599
10.0000002888
10.0000003254
10.0000003507
10.0000003918
10.0000004087
10.0000004597
10.0000004596
10.0000005344
10.0000004996
10.0000006294
10.000000519
10.0000007726
10.00000049
10.0000010221
10.00000034
10.0000015029
9.99999989344
10.0000024867
9.99999875543
10.000004549
9.99999610626
10.0000088162
9.99999043305
10.0000172095
9.99997943635
10.0000322193
9.9999608017
10.0000552801
9.99993489479
10.0000830299
9.99990906832
10.0001036754
9.99989863655
10.0001010371
9.999916213
10.0000710727
9.99995384586
10.0000331465
9.99998640711
10.0000096132
10.0000010371
10.0000030297
10.0000022243
10.0000028653
10.0000058614
10.0000051741
9.99999002066
9.99995249942
9.999895546
9.99983303895
9.99978268397
9.99975750924
9.99976115686
9.99978835138
9.99982903829
9.99987286827
9.99991224157
9.99994333438
9.9999655227
9.99998009896
9.99998905104
9.99999427559
9.9999972376
9.99999892149
9.99999991369
10.0000005218
10.0000008856
10.0000010639
10.0000010896
10.000000998
10.0000008315
10.0000006363
10.0000004532
10.0000003125
10.0000002319
10.0000002175
10.0000002663
10.0000003703
10.0000005187
10.0000007004
10.0000009052
10.0000011258
10.0000013587
10.0000015992
10.0000018436
10.0000020888
10.0000023324
10.0000025726
10.0000028075
10.0000030356
10.0000032556
10.0000034662
10.0000036661
10.0000038545
10.0000040303
10.0000041928
10.0000043412
10.0000044749
10.0000045937
10.0000046965
10.0000047844
10.0000048549
10.0000049118
10.0000049489
10.0000049765
10.0000049785
10.0000049808
10.0000049446
10.0000049294
10.0000048482
10.0000048288
10.0000046906
10.000004688
10.0000000009
10.0000000149
10.0000000257
10.0000000345
10.0000000431
10.0000000526
10.0000000644
10.0000000789
10.0000000969
10.0000001177
10.000000142
10.0000001682
10.000000198
10.0000002277
10.0000002612
10.0000002918
10.0000003275
10.0000003558
10.0000003933
10.0000004165
10.0000004579
10.0000004724
10.000000524
10.0000005239
10.0000005994
10.0000005704
10.0000006994
10.0000006045
10.0000008541
10.0000005948
10.0000011308
10.0000004453
10.0000016973
9.99999989057
10.0000029823
9.99999824813
10.0000060416
9.99999390338
10.0000132645
9.99998344647
10.0000292731
9.99996095335
10.0000609711
9.99991938324
10.0001137293
9.99985777527
10.0001804887
9.99979463001
10.0002296916
9.99977196388
10.0002174977
9.99982121904
10.0001401795
9.99991083334
10.0000560883
9.99997964928
10.0000074415
10.0000014547
10.0000154012
10.0000165915
9.99993851354
9.99971556889
9.99933417369
9.99886042664
9.99841193221
9.99810254843
9.99799755898
9.99809734613
9.9983503318
9.99868269197
9.9990243419
9.99932562394
9.99956232356
9.9997314928
9.99984305572
9.99991168051
9.99995136104
9.99997303437
9.99998428851
9.99998998853
9.99999305145
9.99999507699
9.99999681155
9.99999849105
10.0000000933
10.000001509
10.0000026407
10.0000034433
10.0000039269
10.0000041411
10.0000041548
10.0000040392
10.000003856
10.0000036534
10.0000034638
10.0000033077
10.0000031934
10.0000031251
10.0000031036
10.0000031237
10.0000031791
10.0000032629
10.0000033684
10.0000034897
10.0000036214
10.0000037586
10.0000038978
10.0000040352
10.0000041687
10.0000042952
10.0000044138
10.0000045219
10.0000046198
10.0000047045
10.0000047776
10.0000048359
10.0000048818
10.000004912
10.0000049285
10.0000049306
10.0000049155
10.0000048916
10.0000048408
10.0000047961
10.0000047018
10.0000046466
10.0000044947
10.000004447
10.0000000008
10.0000000149
10.0000000258
10.0000000346
10.0000000432
10.0000000528
10.0000000644
10.0000000786
10.0000000962
10.0000001168
10.000000141
10.0000001675
10.0000001973
10.000000228
10.0000002614
10.0000002937
10.0000003282
10.0000003597
10.0000003936
10.0000004228
10.0000004554
10.0000004826
10.0000005147
10.0000005426
10.0000005752
10.0000006094
10.0000006423
10.000000692
10.0000007214
10.0000007986
10.0000008204
10.0000009255
10.0000009667
10.0000010173
10.0000012825
10.0000008243
10.0000022426
9.99999946995
10.000005405
9.99999428189
10.0000151368
9.99997838873
10.0000416284
9.99993757382
10.0001030295
9.99985131939
10.0002179923
9.99971046328
10.000375267
9.99955843255
10.0004923871
9.99951004223
10.0004508391
9.99963809734
10.0002714522
9.99982943782
10.0000773048
10.0000201213
10.0000677917
9.99975551676
9.9987092681
9.99671837938
9.9939582795
9.99099493336
9.98852104281
9.98707373555
9.98687973611
9.98782685631
9.98957275477
9.9916998983
9.99383108071
9.99570138629
9.99718002901
9.9982502318
9.99896786701
9.99941866658
9.99968677928
9.99983887371
9.9999209896
9.99996227361
9.99998044213
9.99998622295
9.99998614774
9.99998410015
9.99998219424
9.9999813571
9.99998177444
9.99998323489
9.99998537505
9.99998783034
9.99999030999
9.99999261939
9.99999465262
9.99999637165
9.99999778401
9.99999892186
9.99999983008
10.0000005515
10.0000011317
10.0000016068
10.0000020045
10.0000023454
10.000002645
10.0000029134
10.000003158
10.0000033823
10.0000035902
10.0000037812
10.0000039583
10.0000041182
10.0000042652
10.0000043929
10.0000045089
10.000004602
10.0000046861
10.0000047421
10.0000047935
10.0000048094
10.0000048274
10.0000047998
10.0000047831
10.0000047082
10.0000046532
10.0000045272
10.0000044262
10.0000042466
10.000004085
10.0000038537
10.0000000011
10.0000000149
10.0000000255
10.0000000342
10.0000000428
10.0000000524
10.000000064
10.0000000781
10.0000000955
10.0000001159
10.0000001399
10.0000001666
10.0000001963
10.0000002277
10.0000002609
10.0000002945
10.0000003283
10.0000003617
10.0000003937
10.0000004258
10.0000004546
10.0000004867
10.0000005114
10.0000005484
10.0000005673
10.0000006196
10.0000006256
10.000000714
10.0000006852
10.0000008531
10.0000007313
10.0000010738
10.0000007207
10.0000014434
10.0000005652
10.0000020676
10.0000001592
10.0000029999
9.99999962948
10.0000036584
10.000000486
10.0000006963
10.0000092979
9.99998217163
10.000046122
9.99991686564
10.0001553754
9.99974838681
10.0003972951
9.99943201742
10.0007677732
9.99906457333
10.0010421473
9.99898061513
10.0009093582
9.99922833764
10.0006318002
9.99995666085
9.99935806815
9.99539700023
9.98722846265