/*--------------------------------*- C++ -*----------------------------------*\
  =========                 |
  \\      /  F ield         | OpenFOAM: The Open Source CFD Toolbox
   \\    /   O peration     | Website:  https://openfoam.org
    \\  /    A nd           | Version:  7
     \\/     M anipulation  |
\*---------------------------------------------------------------------------*/
FoamFile
{
    version     2.0;
    format      ascii;
    class       volScalarField;
    location    "1380";
    object      p;
}
// * * * * * * * * * * * * * * * * * * * * * * * * * * * * * * * * * * * * * //

dimensions      [0 2 -2 0 0 0 0];

internalField   nonuniform List<scalar> 
8192
(
0.000634798791604
0.000463259030154
0.000377668663159
0.000333590511823
0.000308604485478
0.000293405709873
0.000283573699984
0.000276862589884
0.000272064942886
0.000268496639961
0.000265750481025
0.000263572830921
0.000261799134548
0.000260318750087
0.00025905496414
0.00025795317685
0.000256973652165
0.00025608691323
0.000255270723939
0.000254508052567
0.000253785661511
0.000253093106856
0.000252422012455
0.00025176553154
0.000251117938397
0.000250474311176
0.000249830278726
0.000249181811805
0.000248525045366
0.000247856121346
0.000247171042828
0.000246465533026
0.000245734893646
0.000244973858188
0.000244176436516
0.00024333574801
0.000242443841657
0.000241491503008
0.000240468049888
0.000239361121612
0.000238156469997
0.000236837765258
0.000235386435319
0.000233781563464
0.000231999875395
0.000230015851986
0.000227802006311
0.000225329361259
0.000222568154979
0.000219488784805
0.000216062976461
0.000212265137578
0.000208073827647
0.000203473256782
0.000198454716457
0.000193017846653
0.000187171649751
0.000180935165462
0.000174337719646
0.00016741865962
0.000160226503344
0.000152817476795
0.000145253498235
0.000137599775838
0.000129922276651
0.000122285358739
0.000114749810596
0.000107371420649
0.000100200092941
9.32794337711e-05
8.66466654189e-05
8.03327042774e-05
7.43622676415e-05
6.87539319535e-05
6.35201318955e-05
5.86671455167e-05
5.41951433828e-05
5.00983853582e-05
4.63656274852e-05
4.29807616615e-05
3.99236642022e-05
3.71711899896e-05
3.46982258705e-05
3.24787141894e-05
3.04865712586e-05
2.86964499215e-05
2.70843220802e-05
2.56278808188e-05
2.43067788055e-05
2.31027297849e-05
2.19995036059e-05
2.09828445518e-05
2.00403390851e-05
1.91612544189e-05
1.83363642124e-05
1.75577732023e-05
1.68187486313e-05
1.61135633893e-05
1.54373534246e-05
1.47859904466e-05
1.41559697794e-05
1.35443126041e-05
1.29484813667e-05
1.23663069975e-05
1.17959264748e-05
1.12357293575e-05
1.06843119422e-05
1.01404378792e-05
9.60300416479e-06
9.07101163425e-06
8.54353920103e-06
8.01972133157e-06
7.49872844847e-06
6.97975033148e-06
6.46198302943e-06
5.94462058132e-06
5.42685399978e-06
4.90788199114e-06
4.38694124875e-06
3.86337021201e-06
3.3367311854e-06
2.80703676579e-06
2.27516828552e-06
1.74366135059e-06
1.21823070937e-06
7.1089609996e-07
2.47668021294e-07
-4.16358597182e-08
0.000485875006949
0.000422371298229
0.000372704494311
0.000340082420169
0.000318192229541
0.000303040595545
0.000292247152216
0.000284346182676
0.000278412104461
0.000273846488283
0.000270253378589
0.000267364769306
0.000264995233503
0.000263013786243
0.00026132609471
0.0002598630038
0.000258572984135
0.00025741706099
0.000256365341783
0.000255394592775
0.000254486516894
0.000253626508131
0.000252802735046
0.000252005454757
0.000251226490289
0.000250458824725
0.000249696279358
0.000248933251403
0.000248164495272
0.000247384934508
0.000246589493362
0.000245772940618
0.000244929739601
0.00024405389963
0.000243138825193
0.000242177160319
0.000241160626759
0.000240079856116
0.000238924217887
0.000237681647848
0.000236338484191
0.000234879322675
0.000233286906368
0.000231542070487
0.000229623767477
0.000227509201283
0.000225174101184
0.000222593163391
0.000219740680909
0.000216591368537
0.00021312137026
0.00020930941336
0.000205138051301
0.000200594920986
0.000195673932615
0.000190376312293
0.0001847114239
0.000178697301704
0.000172360825226
0.000165737467577
0.000158870559295
0.000151810045958
0.000144610785582
0.00013733052097
0.000130027739487
0.000122759663241
0.000115580574787
0.000108540572611
0.000101684769553
9.50528800047e-05
8.86790808136e-05
8.25920162551e-05
7.68148391202e-05
7.13652273189e-05
6.62553682929e-05
6.14919470181e-05
5.70761988233e-05
5.30040924062e-05
4.92666913649e-05
4.58507104049e-05
4.2739244793e-05
3.99126199908e-05
3.73492902433e-05
3.50267131298e-05
3.29221387021e-05
3.10132715997e-05
2.92787860184e-05
2.76986923913e-05
2.62545683165e-05
2.49296744669e-05
2.37089793738e-05
2.2579116728e-05
2.15282962573e-05
2.05461857439e-05
1.96237778756e-05
1.87532521369e-05
1.79278388377e-05
1.71416899767e-05
1.63897596939e-05
1.5667695729e-05
1.49717422795e-05
1.42986540432e-05
1.36456207789e-05
1.30102015269e-05
1.23902674838e-05
1.1783952545e-05
1.11896105271e-05
1.06057781939e-05
1.003114328e-05
9.46451686523e-06
8.90480957345e-06
8.35101128841e-06
7.80217428744e-06
7.2574000461e-06
6.71583039305e-06
6.17664438405e-06
5.6390632343e-06
5.10236720036e-06
4.56593066379e-06
4.02928547112e-06
3.49222864251e-06
2.95500052727e-06
2.41857606286e-06
1.88514074519e-06
1.35887407267e-06
8.47294283701e-07
3.63041798312e-07
9.14334782278e-09
0.000402901266653
0.000380247905398
0.000354278421269
0.000333068410086
0.000316976466584
0.000304691493662
0.000295192895422
0.000287752450591
0.000281847883713
0.000277099937443
0.000273230373999
0.000270033268057
0.000267354922991
0.000265079632274
0.000263119510711
0.000261407193002
0.000259890562062
0.000258528918204
0.000257290174317
0.000256148784728
0.000255084201542
0.000254079712548
0.000253121556975
0.000252198244883
0.000251300026647
0.000250418473631
0.00024954614133
0.000248676292411
0.000247802665787
0.00024691927925
0.000246020254566
0.000245099658344
0.000244151352803
0.000243168851894
0.0002421451793
0.000241072725903
0.000239943105432
0.000238747008331
0.000237474055424
0.000236112655056
0.000234649869791
0.000233071301943
0.000231361010751
0.000229501478159
0.00022747364411
0.000225257035789
0.00022283001681
0.00022017018103
0.000217254909589
0.000214062098142
0.000210571043842
0.000206763460627
0.000202624570403
0.000198144202542
0.000193317828205
0.00018814746032
0.000182642359011
0.000176819488829
0.000170703672653
0.000164327381426
0.000157730100776
0.000150957241783
0.000144058623713
0.00013708664591
0.000130094348876
0.000123133601244
0.000116253612067
0.000109499839429
0.000102913297236
9.65302128887e-05
9.03819234195e-05
8.44948871819e-05
7.88907116783e-05
7.35861463573e-05
6.85930391778e-05
6.39182944962e-05
5.95638916928e-05
5.55270268241e-05
5.18004226766e-05
4.83728214592e-05
4.52296383238e-05
4.23537244275e-05
3.97261723809e-05
3.73270970527e-05
3.51363370593e-05
3.31340414537e-05
3.13011258551e-05
2.9619598935e-05
2.80727715449e-05
2.66453671924e-05
2.53235546176e-05
2.40949225725e-05
2.29484144293e-05
2.18742372212e-05
2.08637564546e-05
1.99093851949e-05
1.90044733908e-05
1.81432014894e-05
1.73204808029e-05
1.65318620244e-05
1.57734524236e-05
1.50418417598e-05
1.43340365368e-05
1.36474020606e-05
1.29796115976e-05
1.23286019399e-05
1.16925346462e-05
1.10697623205e-05
1.04587993211e-05
9.85829642617e-06
9.26701906438e-06
8.68382890019e-06
8.10766870987e-06
7.53755075448e-06
6.97254913463e-06
6.4117970678e-06
5.85449058177e-06
5.29990096346e-06
4.74739941934e-06
4.19649906078e-06
3.64692164605e-06
3.09870001095e-06
2.55233242559e-06
2.00901296399e-06
1.47097052464e-06
9.41880140172e-07
4.26574433864e-07
2.31611106586e-08
0.000358315633783
0.00034994669659
0.000335777007672
0.000322008165624
0.000310602023271
0.000301346746589
0.000293789092736
0.00028756060073
0.000282383063333
0.000278043908918
0.000274377385822
0.000271252429747
0.000268564575121
0.000266230172522
0.00026418202016
0.000262365960502
0.000260738193291
0.000259263144978
0.000257911777922
0.000256660248266
0.000255488839571
0.000254381113685
0.000253323232145
0.000252303411016
0.000251311479893
0.000250338522194
0.000249376578045
0.000248418394113
0.000247457212067
0.000246486585885
0.000245500218641
0.000244491814024
0.000243454937781
0.00024238288528
0.00024126855221
0.0002401043063
0.000238881858806
0.000237592135594
0.000236225148881
0.000234769872374
0.000233214124601
0.000231544467895
0.000229746133682
0.000227802988533
0.000225697559432
0.00022341114055
0.000220924006302
0.000218215755437
0.000215265806384
0.000212054053816
0.000208561679507
0.000204772089027
0.000200671923645
0.00019625208059
0.000191508670046
0.000186443844947
0.000181066453501
0.00017539247342
0.000169445182586
0.000163255005974
0.000156858968104
0.000150299696022
0.000143623977474
0.000136880982673
0.000130120364378
0.000123390502808
0.000116737116998
0.000110202288939
0.00010382388388
9.76353195648e-05
9.16655555502e-05
8.59391659714e-05
8.04763904751e-05
7.52931168022e-05
7.04008032357e-05
6.58063875989e-05
6.15122506423e-05
5.75163036011e-05
5.38122505672e-05
5.03900411419e-05
4.72364888927e-05
4.43359994558e-05
4.16713368838e-05
3.92243594502e-05
3.69766716601e-05
3.49101606047e-05
3.30074053758e-05
3.12519642853e-05
2.96285546561e-05
2.81231447024e-05
2.67229777401e-05
2.54165473393e-05
2.41935391405e-05
2.30447519088e-05
2.19620073465e-05
2.0938055615e-05
1.99664813712e-05
1.90416135071e-05
1.81584405236e-05
1.73125326047e-05
1.6499970802e-05
1.57172833435e-05
1.49613887795e-05
1.42295455389e-05
1.35193073586e-05
1.28284840401e-05
1.21551069706e-05
1.14973989018e-05
1.08537475084e-05
1.02226823379e-05
9.60285482387e-06
8.99302114626e-06
8.39202782125e-06
7.79880005411e-06
7.21233304382e-06
6.63168665841e-06
6.05598416871e-06
5.48441612317e-06
4.91625097199e-06
4.35085486189e-06
3.78772426171e-06
3.22653707267e-06
2.66723062378e-06
2.11011627343e-06
1.55602200012e-06
1.00631607755e-06
4.62003735088e-07
2.55431963572e-08
0.000330663765247
0.000328719005725
0.000320942995587
0.00031177140651
0.000303508894781
0.000296492545698
0.000290565230623
0.000285521579624
0.000281193254553
0.000277450602661
0.000274192386028
0.000271337379874
0.00026881897115
0.000266581777069
0.00026457940881
0.000262772862797
0.000261129272662
0.00025962089156
0.000258224240672
0.000256919389359
0.000255689345109
0.000254519536835
0.000253397377631
0.000252311894785
0.000251253416128
0.00025021330371
0.000249183724626
0.000248157451623
0.000247127690359
0.000246087926897
0.000245031788439
0.000243952914924
0.00024284483807
0.000241700865026
0.000240513964348
0.000239276652539
0.000237980879995
0.000236617915977
0.000235178233174
0.000233651393739
0.00023202594041
0.00023028929867
0.00022842769888
0.000226426131113
0.000224268349696
0.000221936949093
0.000219413536503
0.000216679028179
0.000213714093699
0.000210499763096
0.000207018194561
0.000203253576524
0.000199193112193
0.00019482801549
0.000190154442863
0.000185174298186
0.00017989586938
0.000174334269368
0.000168511646343
0.000162457100715
0.000156206218255
0.000149800131188
0.000143284079152
0.000136705571759
0.000130112404958
0.000123550863069
0.000117064372519
0.000110692618878
0.000104471082585
9.8430946236e-05
9.25992154265e-05
8.69988862022e-05
8.16490379089e-05
7.6564809304e-05
7.17572794414e-05
6.72333141185e-05
6.29954604008e-05
5.90419736349e-05
5.53670383308e-05
5.19612013754e-05
4.88119878608e-05
4.5904633034e-05
4.32228484158e-05
4.07495464415e-05
3.84674687402e-05
3.63596889211e-05
3.44099836627e-05
3.26030821755e-05
3.09248130168e-05
2.93621702886e-05
2.7903320366e-05
2.65375674287e-05
2.52552924372e-05
2.4047876689e-05
2.29076180076e-05
2.18276451693e-05
2.08018342613e-05
1.98247292893e-05
1.88914683362e-05
1.7997715903e-05
1.71396015775e-05
1.63136648971e-05
1.55168060694e-05
1.47462421276e-05
1.39994680367e-05
1.32742222683e-05
1.25684563659e-05
1.18803080611e-05
1.1208077536e-05
1.05502064779e-05
9.90525962275e-06
9.27190854542e-06
8.64891751248e-06
8.03513129582e-06
7.4294649254e-06
6.83089548399e-06
6.23845619986e-06
5.651233343e-06
5.06836680155e-06
4.48905582534e-06
3.91257231884e-06
3.33828513527e-06
2.76569876883e-06
2.19450266335e-06
1.62458894571e-06
1.05584543483e-06
4.87131375897e-07
2.60925425159e-08
0.000312286643087
0.000313211196014
0.00030919458272
0.000303081495613
0.000297004489055
0.000291585635447
0.000286875557453
0.000282779385032
0.000279190532937
0.000276020520507
0.000273199983357
0.00027067411208
0.000268398449679
0.000266335989469
0.000264455322901
0.000262729455799
0.000261135012837
0.000259651660567
0.000258261655525
0.000256949468754
0.000255701462168
0.000254505604262
0.000253351218343
0.000252228758899
0.000251129612716
0.000250045922939
0.000248970429183
0.000247896323488
0.000246817121735
0.000245726546346
0.000244618415744
0.00024348653997
0.000242324620269
0.00024112615077
0.000239884320555
0.000238591914738
0.000237241213478
0.000235823888354
0.000234330896195
0.000232752371483
0.000231077519854
0.000229294517337
0.000227390422804
0.00022535111499
0.000223161270231
0.000220804402651
0.000218262993953
0.000215518743655
0.000212552969908
0.000209347182869
0.00020588383433
0.00020214721951
0.000198124475118
0.000193806593201
0.000189189365425
0.000184274192154
0.000179068724226
0.000173587327979
0.000167851352975
0.000161889136517
0.000155735626826
0.00014943148899
0.000143021615835
0.00013655313272
0.000130073212018
0.000123627143406
0.00011725699339
0.000111000807434
0.000104892267885
9.89607676633e-05
9.32317018142e-05
8.77267591365e-05
8.24640671722e-05
7.74581574173e-05
7.27197918855e-05
6.8255730063e-05
6.40685386409e-05
6.01565498352e-05
5.6514045796e-05
5.31316917375e-05
4.99971793782e-05
4.70959975945e-05
4.44122313929e-05
4.1929302227e-05
3.96305912776e-05
3.74999195649e-05
3.55218852122e-05
3.36820750291e-05
3.19671751992e-05
3.03650068399e-05
2.88645093425e-05
2.74556900091e-05
2.61295539225e-05
2.48780240066e-05
2.36938580203e-05
2.25705668506e-05
2.1502336739e-05
2.04839569036e-05
1.95107532155e-05
1.85785280888e-05
1.76835064168e-05
1.68222872127e-05
1.5991800507e-05
1.51892690219e-05
1.44121741294e-05
1.36582256267e-05
1.29253348795e-05
1.22115909304e-05
1.15152391981e-05
1.08346624385e-05
1.0168363669e-05
9.5149508065e-06
8.87312279546e-06
8.24165706188e-06
7.61939817353e-06
7.00524767585e-06
6.39815518492e-06
5.79711100824e-06
5.20114083109e-06
4.60930336649e-06
4.02069214562e-06
3.43444217258e-06
2.84973863036e-06
2.26581092755e-06
1.68185058067e-06
1.09667475344e-06
5.07775486837e-07
2.7064263197e-08
0.00029938367706
0.000301542248827
0.000299773032174
0.000295777005692
0.00029130597933
0.00028707763909
0.000283281871207
0.000279913448559
0.000276915292399
0.000274227191038
0.00027179828597
0.000269587889124
0.000267563437089
0.000265698325198
0.00026397026352
0.000262360156085
0.000260851361866
0.000259429202652
0.000258080621355
0.000256793929486
0.000255558607465
0.000254365137187
0.000253204855557
0.00025206982285
0.000250952702444
0.000249846652108
0.000248745218218
0.000247642238076
0.000246531750395
0.000245407909892
0.000244264903883
0.000243096870992
0.000241897820632
0.000240661552012
0.000239381571404
0.000238051006505
0.000236662516856
0.000235208199514
0.000233679489601
0.000232067056085
0.000230360694306
0.000228549218577
0.000226620360951
0.000224560686239
0.0002223555387
0.000219989042665
0.000217444186698
0.000214703027302
0.000211747050198
0.000208557720633
0.000205117234616
0.000201409449636
0.000197420932393
0.000193142027643
0.000188567845453
0.000183699093744
0.000178542735293
0.000173112485951
0.000167429156536
0.000161520770568
0.00015542230303
0.000149174837916
0.000142823989182
0.000136417641866
0.000130003425975
0.000123626563617
0.000117328517051
0.000111146283599
0.000105112187041
9.92541540583e-05
9.35962278607e-05
8.8159017013e-05
8.29598967244e-05
7.80129510162e-05
7.33287261506e-05
6.89138953699e-05
6.47709619629e-05
6.08981361031e-05
5.72894857978e-05
5.39353898332e-05
5.08232407105e-05
4.79382897458e-05
4.52645108846e-05
4.27853803667e-05
4.04845093036e-05
3.8346107441e-05
3.63552873488e-05
3.44982356105e-05
3.27622832994e-05
3.11359062806e-05
2.96086805399e-05
2.81712115094e-05
2.68150506997e-05
2.55326084153e-05
2.43170679929e-05
2.31623046855e-05
2.20628107765e-05
2.10136275351e-05
2.00102840329e-05
1.90487425073e-05
1.81253497765e-05
1.7236794143e-05
1.63800672014e-05
1.55524299879e-05
1.47513829459e-05
1.39746392238e-05
1.32201008686e-05
1.2485837522e-05
1.17700672669e-05
1.10711393076e-05
1.03875182008e-05
9.71776938486e-06
9.06054578253e-06
8.41457528892e-06
7.77864899282e-06
7.15161003807e-06
6.53234310595e-06
5.91976459676e-06
5.31281367749e-06
4.71044432989e-06
4.11161802687e-06
3.51529469683e-06
2.92041360965e-06
2.32583943966e-06
1.73020950937e-06
1.13154565032e-06
5.26444066777e-07
2.95747906839e-08
0.000289912410961
0.00029254055425
0.000292123158317
0.000289611189078
0.000286356323629
0.000283054748246
0.000279972691056
0.000277173014206
0.000274641793954
0.000272343755491
0.000270242731158
0.00026830759346
0.000266512903204
0.00026483799233
0.000263265827463
0.000261782059658
0.000260374324986
0.000259031755813
0.000257744644084
0.00025650420632
0.000255302413865
0.000254131863942
0.000252985676002
0.000251857403804
0.000250740957283
0.000249630533877
0.00024852054758
0.000247405562523
0.000246280232739
0.000245139240894
0.000243977236637
0.000242788774371
0.000241568249509
0.000240309832255
0.000239007397843
0.000237654452143
0.000236244051475
0.000234768715564
0.000233220332743
0.000231590056964
0.000229868197045
0.000228044100148
0.000226106034072
0.000224041077001
0.000221835029329
0.000219472370335
0.00021693629222
0.000214208853826
0.000211271302133
0.000208104605675
0.000204690223297
0.000201011091087
0.000197052756029
0.000192804537449
0.000188260585856
0.000183420751837
0.000178291258726
0.000172885235522
0.00016722315001
0.000161333076076
0.000155250593155
0.000149018026279
0.000142682751607
0.000136294546182
0.000129902532994
0.000123552699748
0.000117286547452
0.000111140504204
0.000105145858305
9.93292848283e-05
9.37136560357e-05
8.83186883922e-05
8.31611960351e-05
7.82549889736e-05
7.36105290126e-05
6.92344630705e-05
6.51291898002e-05
6.12926360222e-05
5.77183755237e-05
5.43961245612e-05
5.13125413443e-05
4.84521858677e-05
4.57984824078e-05
4.33345609615e-05
4.10439099807e-05
3.89108258727e-05
3.69206809978e-05
3.50600491161e-05
3.3316729949e-05
3.16797090863e-05
3.01390809876e-05
2.86859544518e-05
2.73123530415e-05
2.60111178972e-05
2.47758169316e-05
2.36006622121e-05
2.24804360186e-05
2.14104253315e-05
2.03863641248e-05
1.94043826874e-05
1.84609631524e-05
1.75529004555e-05
1.66772679961e-05
1.58313873577e-05
1.5012801513e-05
1.42192510129e-05
1.34486527185e-05
1.26990806926e-05
1.1968748907e-05
1.12559954689e-05
1.05592680918e-05
9.87711057288e-06
9.20815005427e-06
8.55108487569e-06
7.90467284291e-06
7.26771976265e-06
6.63906810389e-06
6.01758562435e-06
5.40215366165e-06
4.79165435345e-06
4.18495485332e-06
3.58088361658e-06
2.97818676806e-06
2.37543715284e-06
1.7708396204e-06
1.16183907062e-06
5.44449872325e-07
3.42643134778e-08
0.000282708381906
0.000285450683472
0.000285845392326
0.000284377660543
0.000282054485892
0.000279493452261
0.000276988607315
0.000274648146216
0.000272493409479
0.000270511780535
0.00026868077148
0.00026697760434
0.000265382312358
0.000263878232723
0.000262451601162
0.000261090944772
0.000259786523619
0.0002585298878
0.000257313548052
0.000256130737446
0.000254975239684
0.000253841263638
0.000252723348835
0.000251616291226
0.00025051508199
0.00024941485659
0.000248310843244
0.000247198313344
0.000246072539824
0.000244928751736
0.000243762087756
0.000242567547783
0.000241339941761
0.000240073834777
0.000238763487364
0.000237402789817
0.000235985189185
0.000234503607502
0.00023295034976
0.000231317000366
0.000229594307308
0.000227772054544
0.000225838925428
0.000223782364079
0.000221588448117
0.000219241795743
0.000216725542758
0.000214021439128
0.000211110125814
0.000207971652797
0.000204586278308
0.000200935539704
0.000197003513533
0.000192778112987
0.000188252249598
0.000183424746804
0.000178301018013
0.00017289362627
0.000167222826497
0.000161317032812
0.000155212948193
0.000148954951085
0.00014259328546
0.000136180855777
0.000129769359391
0.000123406346119
0.000117133936549
0.000110988404685
0.000105000237851
9.91949745221e-05
9.35944279352e-05
8.8217583045e-05
8.30808819261e-05
7.8198046215e-05
7.35796077765e-05
6.92322749979e-05
6.51583232336e-05
6.13552443181e-05
5.78158336174e-05
5.45287566556e-05
5.14794913926e-05
4.86514511841e-05
4.60270838884e-05
4.35887971112e-05
4.13196384626e-05
3.92037281871e-05
3.72264834649e-05
3.53746894482e-05
3.36364701448e-05
3.20012018077e-05
3.04593991115e-05
2.9002593542e-05
2.76232152703e-05
2.63144842583e-05
2.50703129142e-05
2.38852206381e-05
2.2754259579e-05
2.1672950466e-05
2.06372272426e-05
1.96433892675e-05
1.86880599524e-05
1.77681508481e-05
1.68808303242e-05
1.60234961179e-05
1.51937511348e-05
1.43893819824e-05
1.36083397903e-05
1.28487229383e-05
1.21087613641e-05
1.13868021601e-05
1.06812962059e-05
9.99078560267e-06
9.31389169571e-06
8.64930348013e-06
7.99576618592e-06
7.35206981647e-06
6.71703735572e-06
6.08951220624e-06
5.46834407561e-06
4.85237175865e-06
4.24039960849e-06
3.63116101918e-06
3.02325530051e-06
2.41503160102e-06
1.80437453302e-06
1.18833198731e-06
5.62558192313e-07
4.15499966427e-08
0.000277075376018
0.000279770278859
0.000280648421098
0.000279915701431
0.000278308208707
0.000276345935685
0.000274318791674
0.000272360147699
0.000270517475025
0.000268797562863
0.000267190680089
0.000265682070544
0.000264256843839
0.000262901718888
0.000261605387837
0.000260358343855
0.00025915255045
0.000257981107278
0.00025683796591
0.000255717705677
0.0002546153632
0.000253526304539
0.000252446129068
0.000251370595966
0.000250295567406
0.000249216961613
0.000248130710023
0.000247032715623
0.000245918820331
0.000244784768774
0.000243626170976
0.000242438462822
0.000241216863263
0.000239956327197
0.000238651492816
0.000237296622042
0.000235885532436
0.000234411518694
0.000232867261627
0.000231244722395
0.000229535019943
0.000227728290427
0.000225813529373
0.000223778421227
0.000221609167875
0.000219290338747
0.000216804780865
0.000214133646617
0.000211256615329
0.000208152391845
0.000204799546003
0.000201177697208
0.000197268949743
0.000193059381324
0.000188540346692
0.000183709440938
0.00017857115875
0.000173137459435
0.000167428437315
0.000161473058581
0.000155309620971
0.00014898539752
0.000142554764262
0.000136075229776
0.000129602289649
0.000123185855015
0.000116869230813
0.000110688949044
0.000104674868814
9.88514066236e-05
9.32393670641e-05
8.78571523802e-05
8.27210258397e-05
7.78448141898e-05
7.3239288008e-05
6.89113197436e-05
6.48630452076e-05
6.10913500232e-05
5.75879255347e-05
5.43399449435e-05
5.13312088259e-05
4.85434916893e-05
4.59578215298e-05
4.35555104641e-05
4.13188653208e-05
3.92315948782e-05
3.72789775969e-05
3.54478656281e-05
3.37265917841e-05
3.21048290161e-05
3.05734348097e-05
2.91242993148e-05
2.77502066313e-05
2.64447128427e-05
2.5202041112e-05
2.40169925373e-05
2.28848708124e-05
2.18014186285e-05
2.07627638828e-05
1.97653740084e-05
1.8806016994e-05
1.78817279123e-05
1.69897799807e-05
1.61276593613e-05
1.52930430462e-05
1.44837792903e-05
1.36978701471e-05
1.2933455733e-05
1.21887999006e-05
1.14622770463e-05
1.07523598074e-05
1.00576074221e-05
9.37665453957e-06
8.7082002587e-06
8.05099714907e-06
7.40383994571e-06
6.76555347562e-06
6.13497911439e-06
5.51095855887e-06
4.89231271359e-06
4.27781160209e-06
3.66612771132e-06
3.05575901963e-06
2.44489834731e-06
1.83121451827e-06
1.21150899959e-06
5.81244996552e-07
5.17039696944e-08
0.000272578512469
0.000275156597155
0.000276315963066
0.00027609988113
0.000275041563703
0.000273565065751
0.000271938006015
0.00027030334723
0.000268725812813
0.000267227572791
0.000265810177772
0.000264466481443
0.000263186562093
0.000261960396307
0.000260778894726
0.000259634166146
0.000258519450991
0.000257428937618
0.000256357558333
0.000255300804435
0.000254254572384
0.000253215041259
0.000252178577023
0.000251141657931
0.000250100818381
0.000249052600831
0.000247993514718
0.000246919998808
0.000245828391236
0.000244714897781
0.000243575559333
0.000242406217296
0.000241202475726
0.000239959658954
0.000238672763293
0.000237336401232
0.000235944736148
0.000234491405213
0.000232969427655
0.000231371095152
0.000229687840859
0.000227910083895
0.000226027047529
0.000224026552839
0.000221894796687
0.000219616135183
0.000217172913068
0.000214545405345
0.000211711965583
0.000208649493227
0.000205334318356
0.000201743532295
0.000197856659549
0.000193657411677
0.000189135186692
0.00018428608554
0.00017911350906
0.000173628686842
0.000167851497229
0.000161811571565
0.000155549219414
0.000149115500756
0.000142570457401
0.000135978122743
0.000129399278311
0.000122887015865
0.000116486427542
0.000110234810902
0.000104161537545
9.82897966724e-05
9.26393779522e-05
8.72282586962e-05
8.20727211941e-05
7.71868818839e-05
7.2581913626e-05
6.82649499326e-05
6.42379464718e-05
6.04969556487e-05
5.7032153718e-05
5.3828679985e-05
5.0868066681e-05
4.81298861729e-05
4.55932620144e-05
4.32380248392e-05
4.10454492697e-05
3.89986191883e-05
3.70825191826e-05
3.52839540996e-05
3.35913789813e-05
3.19946957529e-05
3.04850502909e-05
2.90546470168e-05
2.76965877174e-05
2.64047354041e-05
2.51736011403e-05
2.39982506607e-05
2.28742274473e-05
2.17974892122e-05
2.07643551861e-05
1.97714620733e-05
1.8815726956e-05
1.78943157813e-05
1.70046163489e-05
1.61442149419e-05
1.53108759179e-05
1.45025237111e-05
1.37172268003e-05
1.29531832751e-05
1.22087076923e-05
1.14822189577e-05
1.07722289973e-05
1.0077331996e-05
9.39619398594e-06
8.7275425427e-06
8.07015629917e-06
7.4228538843e-06
6.78448170435e-06
6.15389963874e-06
5.52996310306e-06
4.91149882742e-06
4.29726977041e-06
3.68592133574e-06
3.07589596419e-06
2.46529636914e-06
1.85167186839e-06
1.23170585985e-06
6.00809254838e-07
6.48842010185e-08
0.000268934692047
0.000271370017451
0.000272684820665
0.000272830623413
0.000272192645272
0.000271109944368
0.000269819473787
0.000268462967159
0.000267114791505
0.000265808318739
0.000264554461542
0.000263352960705
0.000262198664979
0.000261084776771
0.000260004395565
0.000258951159329
0.000257919434315
0.000256904295464
0.000255901422476
0.000254906972905
0.000253917460122
0.000252929646862
0.000251940456739
0.00025094690216
0.000249946029465
0.000248934870881
0.000247910401264
0.000246869503488
0.000245808938301
0.000244725314281
0.000243615057358
0.000242474378559
0.000241299238632
0.000240085308152
0.000238827921523
0.000237522023003
0.000236162102489
0.000234742118174
0.000233255402555
0.000231694547412
0.000230051262704
0.000228316203945
0.000226478763298
0.000224526822468
0.00022244647225
0.000220221716968
0.000217834204736
0.000215263058134
0.00021248492087
0.000209474370332
0.000206204844008
0.000202650149709
0.000198786452054
0.000194594394684
0.000190060874538
0.000185180116053
0.00017995413497
0.000174393159075
0.000168516625606
0.000162354798799
0.000155950335967
0.000149359022374
0.000142648506046
0.000135892051355
0.000129157653875
0.000122502402252
0.000115973901152
0.000109611006814
0.000103442746883
9.74907997036e-05
9.17738790692e-05
8.63097311852e-05
8.11148391177e-05
7.62037372461e-05
7.15881166065e-05
6.72754257163e-05
6.32673337112e-05
5.95587271782e-05
5.6137714463e-05
5.29867037058e-05
5.00842271176e-05
4.740698747e-05
4.49316590462e-05
4.26361838578e-05
4.05005200388e-05
3.85069372629e-05
3.66400032788e-05
3.48863957497e-05
3.32346387353e-05
3.16748261309e-05
3.01983652655e-05
2.87977546004e-05
2.74663983482e-05
2.61984552901e-05
2.49887168808e-05
2.38325093463e-05
2.27256149346e-05
2.16642082378e-05
2.06448042948e-05
1.96642158927e-05
1.87195180647e-05
1.78080182501e-05
1.69272309299e-05
1.60748558308e-05
1.52487589858e-05
1.44469560968e-05
1.36675977547e-05
1.2908956159e-05
1.21694130388e-05
1.14474485193e-05
1.07416307073e-05
1.00506057757e-05
9.37308832351e-06
8.70785174938e-06
8.05371830951e-06
7.40954839541e-06
6.77422833609e-06
6.14665563013e-06
5.52571983597e-06
4.91027621948e-06
4.29910741854e-06
3.69086553465e-06
3.08398304713e-06
2.47653636434e-06
1.86604324506e-06
1.24918043034e-06
6.21426777465e-07
8.11480546919e-08
0.000265952224332
0.000268238909277
0.000269629973658
0.000270027505112
0.000269710175706
0.000268945856134
0.000267938625939
0.000266822216602
0.000265674696257
0.000264536791717
0.000263426685984
0.00026235002956
0.000261306065389
0.000260291121543
0.000259300482144
0.000258329317704
0.000257373095261
0.00025642771439
0.000255489507703
0.000254555181302
0.000253621734592
0.000252686378796
0.000251746462726
0.000250799408502
0.000249842660554
0.000248873640134
0.000247889700363
0.00024688809428
0.000245865944138
0.000244820211931
0.000243747669707
0.000242644868295
0.000241508103038
0.000240333375011
0.000239116345985
0.000237852285032
0.000236536004131
0.000235161779404
0.000233723253628
0.000232213314496
0.000230623941755
0.000228946015252
0.000227169075498
0.000225281030126
0.000223267805514
0.000221112956553
0.000218797273489
0.000216298466946
0.00021359106989
0.000210646753647
0.000207435276044
0.000203926200844
0.000200091295536
0.000195907165475
0.000191357422104
0.000186433825274
0.000181136503299
0.000175474146833
0.000169465227749
0.000163140369274
0.000156544775033
0.000149739875971
0.000142803431701
0.000135822062947
0.000128873634428
0.00012201993455
0.000115312090781
0.000108791993762
0.000102488505468
9.6421187093e-05
9.06075592878e-05
8.50653982376e-05
7.98114757018e-05
7.48607014962e-05
7.02252644828e-05
6.5912869603e-05
6.19246607624e-05
5.82538504962e-05
5.4885712532e-05
5.17990051368e-05
4.8968338849e-05
4.63667472914e-05
4.39678416968e-05
4.17472516369e-05
3.96833529202e-05
3.77574493693e-05
3.59536143729e-05
3.42583648599e-05
3.26602843991e-05
3.11496614788e-05
2.97181731352e-05
2.83586225298e-05
2.70647279529e-05
2.58309560956e-05
2.46523913346e-05
2.35246333555e-05
2.24437166482e-05
2.14060467107e-05
2.04083489739e-05
1.9447627419e-05
1.85211306162e-05