/*--------------------------------*- C++ -*----------------------------------*\
  =========                 |
  \\      /  F ield         | OpenFOAM: The Open Source CFD Toolbox
   \\    /   O peration     | Website:  https://openfoam.org
    \\  /    A nd           | Version:  7
     \\/     M anipulation  |
\*---------------------------------------------------------------------------*/
FoamFile
{
    version     2.0;
    format      ascii;
    class       volVectorField;
    location    "1380";
    object      U;
}
// * * * * * * * * * * * * * * * * * * * * * * * * * * * * * * * * * * * * * //

dimensions      [0 1 -1 0 0 0 0];

internalField   nonuniform List<vector> 
8192
(
(0.0010434601241 0.000156539875905 0)
(0.00075931927422 0.000127600973747 0)
(0.000549322681782 8.23956182445e-05 0)
(0.000414077943551 5.28491195537e-05 0)
(0.000326279598505 3.49492250757e-05 0)
(0.000267275600409 2.40547726123e-05 0)
(0.000225999693289 1.72211341101e-05 0)
(0.000196013667086 1.27648917049e-05 0)
(0.000173509194148 9.73958085245e-06 0)
(0.000156163486153 7.60612676929e-06 0)
(0.00014250796961 6.04938940841e-06 0)
(0.000131579439037 4.87914080926e-06 0)
(0.000122723738264 3.97655962231e-06 0)
(0.000115482319091 3.26485922681e-06 0)
(0.000109524678118 2.69278144503e-06 0)
(0.000104606833429 2.22506296759e-06 0)
(0.00010054500334 1.83676687528e-06 0)
(9.71984237257e-05 1.50981252628e-06 0)
(9.44578208237e-05 1.23079019965e-06 0)
(9.22374831641e-05 9.89547324757e-07 0)
(9.04696851831e-05 7.78250565339e-07 0)
(8.91006856773e-05 5.90748897937e-07 0)
(8.80878051295e-05 4.2213165954e-07 0)
(8.73972578018e-05 2.68415734232e-07 0)
(8.70025221111e-05 1.26320082979e-07 0)
(8.68831016505e-05 -6.89943111596e-09 0)
(8.70235740508e-05 -1.3357270915e-07 0)
(8.74128539994e-05 -2.55706906408e-07 0)
(8.80436174593e-05 -3.75056143558e-07 0)
(8.89118488256e-05 -4.93174732157e-07 0)
(9.00164807878e-05 -6.11456655395e-07 0)
(9.13591020698e-05 -7.31163964999e-07 0)
(9.29437123967e-05 -8.53445610962e-07 0)
(9.47765062245e-05 -9.79347374677e-07 0)
(9.68656674888e-05 -1.10981295568e-06 0)
(9.92211572004e-05 -1.24567573001e-06 0)
(0.000101854474344 -1.38764029725e-06 0)
(0.000104778368459 -1.53625261287e-06 0)
(0.000108006479752 -1.691857391e-06 0)
(0.00011155288009 -1.85454157795e-06 0)
(0.000115431486367 -2.02406325731e-06 0)
(0.000119655317563 -2.19976643346e-06 0)
(0.000124235569579 -2.38048402219e-06 0)
(0.000129180489282 -2.56443407723e-06 0)
(0.000134494042879 -2.74911788665e-06 0)
(0.000140174395083 -2.9312326686e-06 0)
(0.000146212244993 -3.10661559383e-06 0)
(0.000152589100669 -3.27023845339e-06 0)
(0.000159275612807 -3.41627209141e-06 0)
(0.000166230121622 -3.53823518707e-06 0)
(0.000173397590993 -3.6292327225e-06 0)
(0.000180709101657 -3.68227657531e-06 0)
(0.000188082047068 -3.69066758396e-06 0)
(0.000195421125295 -3.64840951968e-06 0)
(0.000202620160094 -3.55062429832e-06 0)
(0.000209564729106 -3.39394388072e-06 0)
(0.000216135535936 -3.17686226702e-06 0)
(0.00022221243097 -2.900032229e-06 0)
(0.000227678944246 -2.56648064215e-06 0)
(0.000232427121562 -2.1816963881e-06 0)
(0.000236362347294 -1.75352915935e-06 0)
(0.000239407720782 -1.29184422878e-06 0)
(0.000241507485918 -8.07920880891e-07 0)
(0.00024262906263 -3.1365587139e-07 0)
(0.000242763425279 1.7929311564e-07 0)
(0.000241923874319 6.60257661086e-07 0)
(0.000240143550534 1.12006585019e-06 0)
(0.000237472210546 1.55127375462e-06 0)
(0.000233972794993 1.94814128608e-06 0)
(0.000229718236095 2.30641695204e-06 0)
(0.000224788785233 2.62303308602e-06 0)
(0.000219269934944 2.89581620511e-06 0)
(0.000213250827203 3.1232903566e-06 0)
(0.000206822928904 3.30460657967e-06 0)
(0.000200078733486 3.43958729578e-06 0)
(0.00019311030213 3.52884234496e-06 0)
(0.000186007561089 3.57389681885e-06 0)
(0.000178856391418 3.57727082759e-06 0)
(0.00017173665159 3.54246684653e-06 0)
(0.000164720335466 3.47384701631e-06 0)
(0.000157870073936 3.37641216609e-06 0)
(0.000151238141871 3.25551748862e-06 0)
(0.000144866051422 3.11657051068e-06 0)
(0.000138784723832 2.96475461173e-06 0)
(0.000133015157473 2.8048092812e-06 0)
(0.000127569463339 2.64088240808e-06 0)
(0.000122452123427 2.47645509746e-06 0)
(0.000117661336925 2.31432905157e-06 0)
(0.00011319034448 2.15666110727e-06 0)
(0.00010902865267 2.00502849482e-06 0)
(0.000105163111889 1.86051016493e-06 0)
(0.000101578826905 1.72377279261e-06 0)
(9.82598986339e-05 1.59515355078e-06 0)
(9.51900083489e-05 1.47473490861e-06 0)
(9.23528625905e-05 1.36240912758e-06 0)
(8.97325199676e-05 1.25793187646e-06 0)
(8.73136211274e-05 1.1609654467e-06 0)
(8.50815415909e-05 1.07111267216e-06 0)
(8.30224847087e-05 9.87942888724e-07 0)
(8.11235292626e-05 9.11011328115e-07 0)
(7.93726435649e-05 8.39873228426e-07 0)
(7.77586754656e-05 7.74093812968e-07 0)
(7.62713255753e-05 7.13255098047e-07 0)
(7.49011092295e-05 6.5696034226e-07 0)
(7.36393112668e-05 6.0483678389e-07 0)
(7.2477936505e-05 5.56537205733e-07 0)
(7.14096578341e-05 5.11740752931e-07 0)
(7.04277630511e-05 4.7015337344e-07 0)
(6.95261008816e-05 4.31508190952e-07 0)
(6.8699026018e-05 3.9556611542e-07 0)
(6.79413423971e-05 3.62116992716e-07 0)
(6.72482432816e-05 3.30981651096e-07 0)
(6.66152459216e-05 3.02015275816e-07 0)
(6.60381175473e-05 2.75112701134e-07 0)
(6.55127880503e-05 2.50216432471e-07 0)
(6.50352426878e-05 2.27328598713e-07 0)
(6.4601385157e-05 2.06528631429e-07 0)
(6.42068567733e-05 1.87999480972e-07 0)
(6.38467901886e-05 1.72066860808e-07 0)
(6.35154641835e-05 1.59258928278e-07 0)
(6.32058062426e-05 1.50398821742e-07 0)
(6.29086563029e-05 1.46750949649e-07 0)
(6.26116503485e-05 1.50254856079e-07 0)
(6.22975020505e-05 1.63893309286e-07 0)
(6.19413889811e-05 1.92219640888e-07 0)
(6.1507384809e-05 2.41784425014e-07 0)
(6.09458376798e-05 3.19762617073e-07 0)
(6.02157929966e-05 4.10282003931e-07 0)
(0.00121017069235 0.000302909059256 0)
(0.00116032268793 0.000315220643824 0)
(0.00102699549618 0.000238099731046 0)
(0.000887664958206 0.000171720281689 0)
(0.000767148934512 0.000124392430449 0)
(0.000668918328827 9.18461698146e-05 0)
(0.000590266660455 6.93573112219e-05 0)
(0.000527366764948 5.35146351514e-05 0)
(0.000476781187043 4.20798871204e-05 0)
(0.00043577458048 3.36181339534e-05 0)
(0.000402261257601 2.72062205698e-05 0)
(0.000374670999997 2.2241096786e-05 0)
(0.000351820688035 1.83206153916e-05 0)
(0.000332812460307 1.51704494289e-05 0)
(0.00031695817658 1.25991150866e-05 0)
(0.000303724811826 1.04699379963e-05 0)
(0.000292695255886 8.68327719735e-06 0)
(0.000283540103081 7.16503405076e-06 0)
(0.000275997199977 5.85907422526e-06 0)
(0.000269856670384 4.72213022344e-06 0)
(0.000264949829828 3.72030601315e-06 0)
(0.000261140886857 2.8266358883e-06 0)
(0.000258320662406 2.01934979186e-06 0)
(0.000256401787145 1.28062048854e-06 0)
(0.00025531499354 5.95645109693e-07 0)
(0.000255006227408 -4.80371813452e-08 0)
(0.000255434378414 -6.61057469111e-07 0)
(0.000256569480408 -1.25260296908e-06 0)
(0.00025839127057 -1.83071234886e-06 0)
(0.000260888022654 -2.40250037777e-06 0)
(0.00026405558547 -2.97432393449e-06 0)
(0.000267896569265 -3.55189964694e-06 0)
(0.000272419630447 -4.14037905418e-06 0)
(0.000277638809306 -4.74438396332e-06 0)
(0.000283572876798 -5.36800219632e-06 0)
(0.00029024464574 -6.01474194546e-06 0)
(0.000297680199425 -6.68744144904e-06 0)
(0.000305907987314 -7.38812974814e-06 0)
(0.000314957733864 -8.11783413979e-06 0)
(0.00032485910385 -8.87633097078e-06 0)
(0.000335640067244 -9.66183915233e-06 0)
(0.000347324910884 -1.04706608181e-05 0)
(0.000359931855434 -1.12967815047e-05 0)
(0.00037347025737 -1.21314534284e-05 0)
(0.000387937409728 -1.2962799622e-05 0)
(0.000403315003981 -1.37754925029e-05 0)
(0.000419565378195 -1.45505750272e-05 0)
(0.000436627749608 -1.52655013368e-05 0)
(0.000454414703994 -1.58944710994e-05 0)
(0.000472809275898 -1.64091124632e-05 0)
(0.000491662986367 -1.67795311046e-05 0)
(0.000510795193431 -1.69756920503e-05 0)
(0.000529994048754 -1.69690493314e-05 0)
(0.000549019248769 -1.67343029024e-05 0)
(0.000567606641231 -1.62511554929e-05 0)
(0.000585474624405 -1.55059626286e-05 0)
(0.000602332172666 -1.44931968025e-05 0)
(0.000617888232741 -1.32166514078e-05 0)
(0.000631862131226 -1.16902722059e-05 0)
(0.000643994485736 -9.93843596397e-06 0)
(0.000654057916897 -7.99544607747e-06 0)
(0.000661866665921 -5.90404967112e-06 0)
(0.000667284132202 -3.71294692786e-06 0)
(0.000670227467963 -1.47354258837e-06 0)
(0.000670668750865 7.63533759395e-07 0)
(0.00066863282106 2.95149699308e-06 0)
(0.000664192427552 5.04954270888e-06 0)
(0.000657461659655 7.02390330964e-06 0)
(0.000648588691461 8.84789358532e-06 0)
(0.000637748722493 1.0501190158e-05 0)
(0.000625137699673 1.19687306971e-05 0)
(0.000610967029742 1.32396354232e-05 0)
(0.000595459150327 1.43064543699e-05 0)
(0.000578843612415 1.51648743241e-05 0)
(0.000561353272286 1.58138501342e-05 0)
(0.000543220277305 1.62560003975e-05 0)
(0.000524671709467 1.6498041759e-05 0)
(0.000505924965166 1.65510335804e-05 0)
(0.000487183139617 1.64302628586e-05 0)
(0.000468630799062 1.61547008048e-05 0)
(0.000450430536498 1.57460753905e-05 0)
(0.000432720621889 1.52276937227e-05 0)
(0.000415613908242 1.46231910889e-05 0)
(0.000399197986375 1.3955376199e-05 0)
(0.000383536435563 1.32452976225e-05 0)
(0.000368670920805 1.25115958168e-05 0)
(0.00035462384761 1.17701477999e-05 0)
(0.000341401294104 1.10339695497e-05 0)
(0.000328995982306 1.03133182661e-05 0)
(0.000317390108631 9.61593048521e-06 0)
(0.000306557914126 8.94733739738e-06 0)
(0.000296467928683 8.31121021313e-06 0)
(0.000287084865982 7.70970162675e-06 0)
(0.000278371176239 7.14376168928e-06 0)
(0.000270288283168 6.61341631115e-06 0)
(0.000262797542021 6.11800389961e-06 0)
(0.000255860959561 5.65637045602e-06 0)
(0.000249441716423 5.22702635724e-06 0)
(0.000243504529321 4.82826948404e-06 0)
(0.000238015886194 4.4582798651e-06 0)
(0.000232944182504 4.11519088919e-06 0)
(0.000228259782081 3.79714172119e-06 0)
(0.000223935021458 3.50231497192e-06 0)
(0.00021994417267 3.22896307826e-06 0)
(0.000216263376078 2.97542627262e-06 0)
(0.000212870551871 2.74014453755e-06 0)
(0.000209745296454 2.5216655289e-06 0)
(0.000206868767855 2.31865015405e-06 0)
(0.000204223562479 2.12987727519e-06 0)
(0.000201793583919 1.95424890839e-06 0)
(0.000199563903038 1.79079727932e-06 0)
(0.000197520606994 1.63869521796e-06 0)
(0.000195650633243 1.49727162138e-06 0)
(0.000193941582728 1.36603414878e-06 0)
(0.000192381504237 1.24470197118e-06 0)
(0.000190958639354 1.13325239626e-06 0)
(0.000189661114251 1.03198664475e-06 0)
(0.000188476561169 9.41622194505e-07 0)
(0.00018739164907 8.63422171505e-07 0)
(0.000186391501623 7.99376486453e-07 0)
(0.000185458985862 7.52454451064e-07 0)
(0.000184573878852 7.26951816978e-07 0)
(0.00018371199329 7.28945107071e-07 0)
(0.000182844544558 7.6679973645e-07 0)
(0.000181938576598 8.51393938208e-07 0)
(0.000180960605999 9.94584645122e-07 0)
(0.000179889664217 1.1994511175e-06 0)
(0.000178744102574 1.40619970659e-06 0)
(0.00122478004469 0.000267958321791 0)
(0.0012410832959 0.000383716133146 0)
(0.00119619430443 0.000347820423125 0)
(0.00111346029501 0.000284064135256 0)
(0.00102050402713 0.000225520866767 0)
(0.000931025795985 0.000178426568675 0)
(0.000850454198161 0.000142000176943 0)
(0.000780181315367 0.000114044546146 0)
(0.000719836778653 9.24800891867e-05 0)
(0.00066839370978 7.56676057934e-05 0)
(0.000624672853772 6.23909261275e-05 0)
(0.00058755393561 5.17655655551e-05 0)
(0.000556050599252 4.31497935715e-05 0)
(0.000529324968112 3.60751288243e-05 0)
(0.000506677720172 3.01959661608e-05 0)
(0.000487530050716 2.52541200444e-05 0)
(0.000471404607567 2.10540932728e-05 0)
(0.000457908167437 1.74458100798e-05 0)
(0.000446716884033 1.43124840252e-05 0)
(0.00043756411925 1.1562014285e-05 0)
(0.000430230563668 9.12081775118e-06 0)
(0.000424536274684 6.92935596162e-06 0)
(0.000420334276067 4.93885285185e-06 0)
(0.000417505410592 3.10885845245e-06 0)
(0.000415954191067 1.40542080446e-06 0)
(0.000415605444 -2.00298894647e-07 0)
(0.000416401580504 -1.73308221265e-06 0)
(0.000418300361066 -3.21445944171e-06 0)
(0.000421273048636 -4.66333196954e-06 0)
(0.000425302862862 -6.09644511433e-06 0)
(0.000430383659405 -7.52873628137e-06 0)
(0.000436518768365 -8.97357744575e-06 0)
(0.000443719931638 -1.044292276e-05 0)
(0.000452006281757 -1.19473659414e-05 0)
(0.000461403304999 -1.34961073131e-05 0)
(0.00047194172981 -1.50968266006e-05 0)
(0.000483656278538 -1.67554548932e-05 0)
(0.000496584216755 -1.84758377747e-05 0)
(0.000510763631142 -2.02592821111e-05 0)
(0.000526231365465 -2.21039820912e-05 0)
(0.000543020546486 -2.40043269801e-05 0)
(0.000561157640298 -2.5950104762e-05 0)
(0.00058065899764 -2.79256335988e-05 0)
(0.000601526877545 -2.99088771946e-05 0)
(0.00062374498541 -3.18706300258e-05 0)
(0.000647273625956 -3.37738908312e-05 0)
(0.000672044652813 -3.55735717524e-05 0)
(0.000697956489222 -3.72167065331e-05 0)
(0.000724869587477 -3.86433128333e-05 0)
(0.000752602770968 -3.97880206749e-05 0)
(0.000780930941033 -4.05824983109e-05 0)
(0.00080958461212 -4.09585982842e-05 0)
(0.000838251653834 -4.08520358869e-05 0)
(0.000866581475524 -4.02063343174e-05 0)
(0.000894191714916 -3.89767527415e-05 0)
(0.000920677322085 -3.71339530879e-05 0)
(0.000945621788104 -3.466721853e-05 0)
(0.000968610149326 -3.15870493929e-05 0)
(0.000989243268587 -2.79268908426e-05 0)
(0.00100715271294 -2.37436154634e-05 0)
(0.0010220153067 -1.91162911273e-05 0)
(0.00103356619677 -1.41428436418e-05 0)
(0.00104160914767 -8.93457035035e-06 0)
(0.00104602293386 -3.60904161179e-06 0)
(0.00104676319118 1.71749175711e-06 0)
(0.00104385983014 6.9368286762e-06 0)
(0.00103741083712 1.19535959667e-05 0)
(0.00102757371156 1.66877414318e-05 0)
(0.00101455585116 2.10748814116e-05 0)
(0.000998605016438 2.50650027723e-05 0)
(0.000980000639981 2.8620313457e-05 0)
(0.000959046276779 3.17130812221e-05 0)
(0.000936063061747 3.43240977695e-05 0)
(0.000911383771573 3.64420531004e-05 0)
(0.00088534702143 3.80637550862e-05 0)
(0.000858291233293 3.91948714291e-05 0)
(0.000830548231704 3.98507324859e-05 0)
(0.000802436586092 4.00567246301e-05 0)
(0.000774255052982 3.9847921942e-05 0)
(0.00074627661225 3.92678141789e-05 0)
(0.000718743603584 3.83662241981e-05 0)
(0.000691864358388 3.71966955372e-05 0)
(0.000665811530106 3.58137219707e-05 0)
(0.000640722110589 3.42701774909e-05 0)
(0.000616698934607 3.26152140104e-05 0)
(0.000593813351221 3.08927686131e-05 0)
(0.000572108688456 2.91407022162e-05 0)
(0.00055160414633 2.7390502279e-05 0)
(0.000532298803749 2.56674317277e-05 0)
(0.000514175496064 2.39909905293e-05 0)
(0.000497204395431 2.23755649937e-05 0)
(0.000481346194334 2.08311620334e-05 0)
(0.000466554847854 1.93641522493e-05 0)
(0.00045277987114 1.79779711724e-05 0)
(0.000439968215927 1.66737491499e-05 0)
(0.000428065766165 1.54508563873e-05 0)
(0.000417018500692 1.430736069e-05 0)
(0.000406773372673 1.32404024281e-05 0)
(0.000397278953591 1.22464950879e-05 0)
(0.000388485885312 1.13217614843e-05 0)
(0.000380347178425 1.04621159735e-05 0)
(0.000372818389424 9.66340247904e-06 0)
(0.000365857703802 8.92149714953e-06 0)
(0.000359425947081 8.23238335316e-06 0)
(0.000353486541285 7.59220556737e-06 0)
(0.000348005420418 6.99730771879e-06 0)
(0.000342950915145 6.44426064521e-06 0)
(0.000338293613898 5.92988267959e-06 0)
(0.000334006205152 5.45125684251e-06 0)
(0.000330063303352 5.00574783443e-06 0)
(0.000326441258981 4.59102189012e-06 0)
(0.000323117951405 4.20507265228e-06 0)
(0.0003200725614 3.84625649928e-06 0)
(0.000317285318582 3.51334128433e-06 0)
(0.000314737217532 3.20557317293e-06 0)
(0.000312409695285 2.92276723312e-06 0)
(0.000310284262699 2.66542851116e-06 0)
(0.000308342083942 2.43491128471e-06 0)
(0.000306563504096 2.23362424155e-06 0)
(0.000304927538668 2.06528659801e-06 0)
(0.000303411368458 1.93522970011e-06 0)
(0.000301989943628 1.85070786918e-06 0)
(0.000300635919774 1.82109799706e-06 0)
(0.000299320375587 1.8576393488e-06 0)
(0.00029801516517 1.97173234746e-06 0)
(0.000296698405427 2.16897629898e-06 0)
(0.000295364318401 2.43008808083e-06 0)
(0.000294030626447 2.65481622903e-06 0)
(0.00122192701466 0.000221251261986 0)
(0.00125339056963 0.000382656385303 0)
(0.00125107412255 0.000396085607529 0)
(0.00121341496743 0.000356192113504 0)
(0.00115543746233 0.00030432665968 0)
(0.00108954496094 0.000254991506516 0)
(0.00102320989701 0.000212341899101 0)
(0.000960391615885 0.000176793986174 0)
(0.000902914083655 0.000147552716391 0)
(0.000851396489075 0.000123555640355 0)
(0.000805818051741 0.000103802183253 0)
(0.000765844119836 8.74471568829e-05 0)
(0.000731007923264 7.38077336188e-05 0)
(0.000700808292582 6.23424491128e-05 0)
(0.000674759641681 5.26245433107e-05 0)
(0.000652415405538 4.43174471866e-05 0)
(0.000633377074629 3.71545389895e-05 0)
(0.000617295683728 3.09231943133e-05 0)
(0.000603869574488 2.54524914891e-05 0)
(0.000592840522277 2.06038230145e-05 0)
(0.000583989342499 1.62637437382e-05 0)
(0.000577131546561 1.2338514425e-05 0)
(0.000572113316705 8.74992257589e-06 0)
(0.000568807905627 5.43206519472e-06 0)
(0.000567112480605 2.32885873895e-06 0)
(0.000566945388318 -6.0789711817e-07 0)
(0.000568243794741 -3.4200263153e-06 0)
(0.000570961646863 -6.14414716385e-06 0)
(0.000575067904601 -8.81258842452e-06 0)
(0.00058054498858 -1.1454085449e-05 0)
(0.000587387388087 -1.40942902866e-05 0)
(0.000595600376205 -1.6756118504e-05 0)
(0.00060519877855 -1.94599449913e-05 0)
(0.00061620574029 -2.22236529226e-05 0)
(0.000628651433294 -2.50625336124e-05 0)
(0.000642571641424 -2.79890299569e-05 0)
(0.000658006157537 -3.10123127799e-05 0)
(0.000674996921452 -3.41376781168e-05 0)
(0.000693585824815 -3.73657553269e-05 0)
(0.000713812108131 -4.06915220526e-05 0)
(0.000735709279071 -4.41031342728e-05 0)
(0.000759301492344 -4.75805996325e-05 0)
(0.000784599353055 -5.10943516799e-05 0)
(0.000811595141286 -5.46038220097e-05 0)
(0.000840257508951 -5.80561554084e-05 0)
(0.000870525773105 -6.13852647774e-05 0)
(0.000902304022164 -6.45114683698e-05 0)
(0.000935455357558 -6.7341976446e-05 0)
(0.000969796701044 -6.97724795349e-05 0)
(0.00100509468753 -7.16900190427e-05 0)
(0.00104106320953 -7.29771873776e-05 0)
(0.00107736315757 -7.351752407e-05 0)
(0.00111360479789 -7.32017882696e-05 0)
(0.00114935305212 -7.19346544664e-05 0)
(0.00118413572816 -6.96413451285e-05 0)
(0.00121745454396 -6.62737812813e-05 0)
(0.00124879862426 -6.18159347716e-05 0)
(0.00127766003027 -5.62880989711e-05 0)
(0.00130355075723 -4.97496865041e-05 0)
(0.00132602044225 -4.22999485605e-05 0)
(0.0013446737415 -3.40758507436e-05 0)
(0.00135918602253 -2.52464551046e-05 0)
(0.00136931582627 -1.60037137689e-05 0)
(0.00137491268606 -6.55054466439e-06 0)
(0.0013759194818 2.91194098383e-06 0)
(0.00137236944514 1.21957760487e-05 0)
(0.00136437883844 2.11342468182e-05 0)
(0.0013521368223 2.95862303457e-05 0)
(0.00133589406792 3.74370048027e-05 0)
(0.00131595144184 4.45963371512e-05 0)
(0.00129264966033 5.0995133413e-05 0)
(0.00126636024934 5.65820312052e-05 0)
(0.00123747762931 6.13209779715e-05 0)
(0.0012064118364 6.51902504914e-05 0)
(0.0011735813338 6.81828043665e-05 0)
(0.00113940550504 7.03074324335e-05 0)
(0.00110429668308 7.15899879318e-05 0)
(0.00106865187973 7.20739106143e-05 0)
(0.00103284465648 7.18194844288e-05 0)
(0.000997217740948 7.09015997988e-05 0)
(0.00096207699951 6.94061803308e-05 0)
(0.000927687234436 6.74257412127e-05 0)
(0.000894270036509 6.50546940094e-05 0)
(0.000862003665008 6.23849880107e-05 0)
(0.000831024708969 5.95025271543e-05 0)
(0.000801431143746 5.64845958774e-05 0)
(0.000773286341691 5.33983317804e-05 0)
(0.000746623610835 5.03001379564e-05 0)
(0.000721450896543 4.7235845469e-05 0)
(0.000697755364001 4.42414098774e-05 0)
(0.000675507665247 4.13439382325e-05 0)
(0.000654665771333 3.85628773563e-05 0)
(0.000635178312459 3.5911236192e-05 0)
(0.000616987415073 3.33967556028e-05 0)
(0.000600031056476 3.10229731631e-05 0)
(0.000584244976811 2.87901567853e-05 0)
(0.000569564198379 2.66960995249e-05 0)
(0.000555924205651 2.47367799969e-05 0)
(0.000543261838391 2.29068998331e-05 0)
(0.000531515946572 2.12003131064e-05 0)
(0.000520627850689 1.96103636719e-05 0)
(0.000510541645288 1.81301459972e-05 0)
(0.000501204377821 1.67527037805e-05 0)
(0.000492566129463 1.54711790913e-05 0)
(0.000484580019547 1.42789230446e-05 0)
(0.000477202150887 1.31695774686e-05 0)
(0.000470391509337 1.21371356013e-05 0)
(0.000464109827632 1.11759887284e-05 0)
(0.000458321420612 1.02809647662e-05 0)
(0.000452992996486 9.44736418773e-06 0)
(0.000448093446577 8.6709983024e-06 0)
(0.000443593614219 7.94823478312e-06 0)
(0.000439466041931 7.27605538573e-06 0)
(0.000435684694935 6.65213104547e-06 0)
(0.000432224658562 6.07491977066e-06 0)
(0.000429061807635 5.54379284467e-06 0)
(0.000426172447997 5.05919425282e-06 0)
(0.000423532935395 4.62283612287e-06 0)
(0.000421119286643 4.2379273097e-06 0)
(0.000418906815835 3.9094191551e-06 0)
(0.000416869859306 3.64422334559e-06 0)
(0.000414981704683 3.45129320501e-06 0)
(0.000413214920999 3.34131978261e-06 0)
(0.000411542402649 3.32547973527e-06 0)
(0.000409939558328 3.41194638639e-06 0)
(0.000408387938832 3.59714125504e-06 0)
(0.000406879004508 3.84494431108e-06 0)
(0.00040540929064 4.04336572627e-06 0)
(0.0012169327532 0.000182391493604 0)
(0.00124908908681 0.000357896263476 0)
(0.00126568182762 0.000406569433448 0)
(0.00125589926237 0.000393150005905 0)
(0.00122551813264 0.000355727400127 0)
(0.00118284863441 0.000312152763742 0)
(0.00113443989125 0.000269924447046 0)
(0.00108466611838 0.000231803490316 0)
(0.00103621376186 0.000198473099102 0)
(0.000990613023033 0.000169753589181 0)
(0.000948646419328 0.000145149273619 0)
(0.000910631321447 0.000124089094493 0)
(0.000876606400083 0.000106026912183 0)
(0.0008464513847 9.04779149145e-05 0)
(0.000819962460794 7.70266506913e-05 0)
(0.000796898833846 6.53232013579e-05 0)
(0.000777010833085 5.50751150437e-05 0)
(0.000760056335017 4.60385058908e-05 0)
(0.00074580987975 3.8009743201e-05 0)
(0.000734067275375 3.08182268022e-05 0)
(0.000724647464425 2.43203297351e-05 0)
(0.000717392770668 1.83944173345e-05 0)
(0.000712168225421 1.29367941493e-05 0)
(0.000708860405592 7.85842409067e-06 0)
(0.000707376045868 3.08228434807e-06 0)
(0.000707640579667 -1.45876427053e-06 0)
(0.000709596691787 -5.82367751212e-06 0)
(0.000713202925307 -1.00645811768e-05 0)
(0.000718432360326 -1.42278464836e-05 0)
(0.000725271356677 -1.83549067703e-05 0)
(0.000733718339419 -2.2482849986e-05 0)
(0.000743782599057 -2.66448050457e-05 0)
(0.000755483070037 -3.08701299621e-05 0)
(0.000768847043788 -3.51844013261e-05 0)
(0.000783908765807 -3.96091978082e-05 0)
(0.000800707859615 -4.41616649657e-05 0)
(0.000819287514053 -4.88538452822e-05 0)
(0.000839692364728 -5.36917568631e-05 0)
(0.000861965996363 -5.86742079493e-05 0)
(0.000886147991679 -6.37913441586e-05 0)
(0.000912270456183 -6.90229434538e-05 0)
(0.000940353959547 -7.43365027032e-05 0)
(0.000970402856416 -7.96852016083e-05 0)
(0.00100239998645 -8.50058856027e-05 0)
(0.00103630080914 -9.02172773109e-05 0)
(0.00107202710666 -9.52186996196e-05 0)
(0.00110946048803 -9.98896590049e-05 0)
(0.00114843604595 -0.000104090674219 0)
(0.00118873664138 -0.000107665715878 0)
(0.00123008839803 -0.000110446521205 0)
(0.0012721580493 -0.0001122588541 0)
(0.00131455276125 -0.000112930513264 0)
(0.00135682293591 -0.00011230061035 0)
(0.00139846828765 -0.000110229435112 0)
(0.00143894722369 -0.000106608173775 0)
(0.00147768931578 -0.00010136785824 0)
(0.00151411047992 -9.44871004524e-05 0)
(0.00154763038286 -8.59982409007e-05 0)
(0.00157769150158 -7.59913893367e-05 0)
(0.00160377907339 -6.46155020118e-05 0)
(0.00162544083924 -5.20753621355e-05 0)
(0.00164230505933 -3.86234448535e-05 0)
(0.00165409495835 -2.45464270388e-05 0)
(0.00166063782351 -1.014755685e-05 0)
(0.0016618676761 4.27230408166e-06 0)
(0.00165782165634 1.84314683043e-05 0)
(0.00164863142734 3.20793888086e-05 0)
(0.00163451145614 4.50030738195e-05 0)
(0.00161574599879 5.70283706756e-05 0)
(0.00159267631744 6.80172757845e-05 0)
(0.00156568915266 7.78631375692e-05 0)
(0.00153520678695 8.64857996726e-05 0)
(0.00150167840119 9.38282106193e-05 0)
(0.00146557208182 9.98551248719e-05 0)
(0.00142736680889 0.000104553699711 0)
(0.00138754394642 0.00010793522201 0)
(0.00134657807598 0.00011003688398 0)
(0.00130492738908 0.000110922497632 0)
(0.00126302418675 0.000110681315471 0)
(0.00122126622786 0.000109424635414 0)
(0.00118000966427 0.000107280441805 0)
(0.00113956411532 0.000104386785724 0)
(0.00110019013801 0.000100884816694 0)
(0.00106209903618 9.69123306558e-05 0)
(0.00102545470019 9.2598468657e-05 0)
(0.000990377015871 8.80598961938e-05 0)
(0.000956946332257 8.33985096245e-05 0)
(0.000925208506623 7.8700509345e-05 0)
(0.000895180123479 7.40365645448e-05 0)
(0.000866853581226 6.9462758934e-05 0)
(0.000840201836626 6.50220261984e-05 0)
(0.000815182680789 6.07458331506e-05 0)
(0.000791742486507 5.66559279112e-05 0)
(0.000769819415006 5.27660274772e-05 0)
(0.000749346102797 4.90833671461e-05 0)
(0.000730251869274 4.56100713768e-05 0)
(0.000712464496245 4.23443321081e-05 0)
(0.000695911634374 3.92813980372e-05 0)
(0.000680521890907 3.6414388841e-05 0)
(0.00066622564963 3.37349537952e-05 0)
(0.000652955669091 3.1233796269e-05 0)
(0.000640647499541 2.89010854598e-05 0)
(0.000629239753321 2.67267753421e-05 0)
(0.000618674257938 2.47008488207e-05 0)
(0.000608896116043 2.28135028727e-05 0)
(0.000599853691935 2.10552883346e-05 0)
(0.000591498540266 1.94172160479e-05 0)
(0.000583785289058 1.78908394421e-05 0)
(0.000576671486231 1.64683222875e-05 0)
(0.000570117416207 1.51424993346e-05 0)
(0.000564085891099 1.39069368115e-05 0)
(0.000558542019229 1.27559992527e-05 0)
(0.000553452952507 1.16849287786e-05 0)
(0.000548787613481 1.06899426261e-05 0)
(0.000544516402909 9.76835417847e-06 0)
(0.000540610889832 8.91872157276e-06 0)
(0.00053704348883 8.14102538158e-06 0)
(0.000533787134224 7.43687150141e-06 0)
(0.000530814969695 6.80970459097e-06 0)
(0.000528100085587 6.26499624339e-06 0)
(0.000525615357036 5.81033085915e-06 0)
(0.000523333465205 5.45523172901e-06 0)
(0.000521227218743 5.21041103758e-06 0)
(0.000519270315091 5.0858101628e-06 0)
(0.000517438615128 5.08615997311e-06 0)
(0.000515711574344 5.20158773496e-06 0)
(0.00051407180954 5.38919681301e-06 0)
(0.000512497005457 5.54363109117e-06 0)
(0.00121284961533 0.000152609124485 0)
(0.00124174415206 0.000326627760482 0)
(0.00126585175137 0.000397137593986 0)
(0.00127223737214 0.000405978787636 0)
(0.00126115651969 0.000384360598437 0)
(0.00123724689468 0.000350098686566 0)
(0.00120534186822 0.000312292291758 0)
(0.00116927099066 0.000275280293964 0)
(0.00113176715405 0.000240952486516 0)
(0.00109466907481 0.000209973017789 0)
(0.00105915498812 0.00018241053338 0)
(0.00102593790083 0.000158060017917 0)
(0.000995412825676 0.00013660598332 0)
(0.000967762871821 0.000117703811118 0)
(0.000943033829109 0.000101018719274 0)
(0.000921185767825 8.62428192519e-05 0)
(0.000902128286314 7.31009777518e-05 0)
(0.0008857442977 6.13511282936e-05 0)
(0.000871905864777 5.07820075239e-05 0)
(0.000860484560802 4.12098694837e-05 0)
(0.000851358087935 3.24749696556e-05 0)
(0.00084441435507 2.44382029632e-05 0)
(0.000839553844205 1.69780637155e-05 0)
(0.000836690834249 9.98798356099e-06 0)
(0.000835753869989 3.37404829416e-06 0)
(0.00083668573815 -2.94693054676e-06 0)
(0.000839443120178 -9.04900554348e-06 0)
(0.000843996038013 -1.49984044369e-05 0)
(0.00085032716655 -2.0854586476e-05 0)
(0.000858431045009 -2.66710410334e-05 0)
(0.000868313200752 -3.2495853386e-05 0)
(0.000879989183432 -3.8372042865e-05 0)
(0.000893483492751 -4.43376710549e-05 0)
(0.00090882837111 -5.04257106606e-05 0)
(0.000926062422056 -5.66636594521e-05 0)
(0.00094522900602 -6.30728788016e-05 0)
(0.000966374356363 -6.96676336285e-05 0)
(0.000989545351327 -7.64538112523e-05 0)
(0.00101478687189 -8.34273025594e-05 0)
(0.00104213867284 -9.0572042337e-05 0)
(0.00107163169644 -9.78577296286e-05 0)
(0.00110328376729 -0.000105237286739 0)
(0.0011370946272 -0.000112644170146 0)
(0.00117304030407 -0.000119989719564 0)
(0.00121106686357 -0.000127160821002 0)
(0.00125108367275 -0.000134018257976 0)
(0.00129295641066 -0.000140396215225 0)
(0.00133650019287 -0.000146103453432 0)
(0.00138147331993 -0.000150926654531 0)
(0.00142757229244 -0.000154636307218 0)
(0.00147442881829 -0.000156995240929 0)
(0.00152160952873 -0.000157769544824 0)
(0.0015686189864 -0.00015674120747 0)
(0.00161490631401 -0.000153721514129 0)
(0.00165987545254 -0.000148564166558 0)
(0.00170289876843 -0.000141177271173 0)
(0.00174333355624 -0.000131533637688 0)
(0.0017805409327 -0.000119678981733 0)
(0.00181390658909 -0.000105737422702 0)
(0.00184286270349 -8.99131543156e-05 0)
(0.00186690991356 -7.24866854944e-05 0)
(0.00188563766831 -5.38040963507e-05 0)
(0.00189874074563 -3.42587521123e-05 0)
(0.0019060296477 -1.42669994847e-05 0)
(0.00190743340775 5.75813334751e-06 0)
(0.00190299499399 2.54300715376e-05 0)
(0.00189286105947 4.44049476818e-05 0)
(0.00187726837391 6.23901698716e-05 0)
(0.00185652907989 7.9146023667e-05 0)
(0.00183101652901 9.44818521582e-05 0)
(0.00180115287307 0.000108249378485 0)
(0.00176739871263 0.000120336080912 0)
(0.00173024429355 0.000130660729655 0)
(0.00169020136212 0.000139171851515 0)
(0.00164779482654 0.000145848775928 0)
(0.00160355363971 0.000150704188941 0)
(0.00155800071464 0.000153786705953 0)
(0.0015116421446 0.000155181925595 0)
(0.00146495641512 0.000155010812003 0)
(0.00141838453037 0.000153424974956 0)
(0.00137232196014 0.000150599228372 0)
(0.00132711306586 0.000146722434587 0)
(0.00128304828752 0.000141987915687 0)
(0.00124036398976 0.000136584623521 0)
(0.00119924457248 0.000130689921472 0)
(0.00115982629025 0.000124464402495 0)
(0.00112220218858 0.000118048781407 0)
(0.00108642761845 0.000111562626384 0)
(0.00105252589296 0.000105104549492 0)
(0.00102049376573 9.87534371281e-05 0)
(0.000990306519475 9.25703328446e-05 0)
(0.000961922542784 8.6600653363e-05 0)
(0.000935287341434 8.08764980054e-05 0)
(0.000910336978652 7.54188866853e-05 0)
(0.000887000969964 7.02398241934e-05 0)