/*--------------------------------*- C++ -*----------------------------------*\
  =========                 |
  \\      /  F ield         | OpenFOAM: The Open Source CFD Toolbox
   \\    /   O peration     | Website:  https://openfoam.org
    \\  /    A nd           | Version:  7
     \\/     M anipulation  |
\*---------------------------------------------------------------------------*/
FoamFile
{
    version     2.0;
    format      ascii;
    class       volScalarField;
    location    "5.849928e+08";
    object      p;
}
// * * * * * * * * * * * * * * * * * * * * * * * * * * * * * * * * * * * * * //

dimensions      [0 2 -2 0 0 0 0];

internalField   nonuniform List<scalar> 
80
(
0.0688755
0.0688325
0.0687893
0.0687444
0.0686916
0.0686149
0.0684741
0.0681817
0.0676538
0.0669188
0.0660627
0.0651499
0.0642134
0.0632676
0.0623183
0.0613677
0.0604166
0.0594653
0.0585139
0.0575625
0.056611
0.0556596
0.0547082
0.0537567
0.0528053
0.0518538
0.0509024
0.049951
0.0489995
0.0480481
0.0470966
0.0461452
0.0451938
0.0442423
0.0432909
0.0423394
0.041388
0.0404365
0.0394851
0.0385337
0.0375822
0.0366308
0.0356793
0.0347279
0.0337764
0.032825
0.0318735
0.0309221
0.0299706
0.0290192
0.0280678
0.0271163
0.0261649
0.0252134
0.024262
0.0233105
0.0223591
0.0214076
0.0204562
0.0195047
0.0185533
0.0176018
0.0166504
0.0156989
0.0147475
0.013796
0.0128446
0.0118931
0.0109417
0.00999023
0.00903878
0.00808733
0.00713588
0.00618443
0.00523298
0.00428153
0.00333008
0.00237863
0.00142718
0.000475726
)
;

boundaryField
{
    outlet
    {
        type            fixedValue;
        value           uniform 0;
    }
    inlet
    {
        type            fixedValue;
        value           uniform 0.0688971;
    }
    frontAndBack
    {
        type            empty;
    }
}


// ************************************************************************* //
