/*--------------------------------*- C++ -*----------------------------------*\
  =========                 |
  \\      /  F ield         | OpenFOAM: The Open Source CFD Toolbox
   \\    /   O peration     | Website:  https://openfoam.org
    \\  /    A nd           | Version:  7
     \\/     M anipulation  |
\*---------------------------------------------------------------------------*/
FoamFile
{
    version     2.0;
    format      ascii;
    class       volScalarField;
    location    "3120";
    object      Ci;
}
// * * * * * * * * * * * * * * * * * * * * * * * * * * * * * * * * * * * * * //

dimensions      [0 -3 0 0 1 0 0];

internalField   nonuniform List<scalar> 
8192
(
9.99999999811
10.0000000066
10.0000000179
10.0000000313
10.0000000473
10.0000000638
10.0000000776
10.0000000873
10.0000000923
10.0000000924
10.0000000881
10.0000000796
10.0000000673
10.0000000513
10.0000000316
10.0000000081
9.99999998038
9.99999994784
9.99999990966
9.99999986448
9.99999981147
9.99999974987
9.99999967898
9.99999959802
9.99999950625
9.9999994029
9.99999928725
9.9999991586
9.99999901638
9.99999886004
9.99999868927
9.99999850378
9.99999830359
9.99999808876
9.99999785972
9.99999761697
9.9999973614
9.99999709402
9.99999681627
9.99999652985
9.99999623705
9.99999594041
9.99999564299
9.999995348
9.99999505911
9.99999478014
9.99999451525
9.99999426863
9.99999404462
9.99999384736
9.99999368084
9.99999354864
9.99999345382
9.99999339881
9.99999338532
9.99999341433
9.99999348604
9.99999360004
9.99999375524
9.99999395016
9.9999941829
9.99999445137
9.99999475322
9.99999508606
9.99999544729
9.99999583432
9.99999624448
9.99999667534
9.99999712459
9.99999759033
9.99999807081
9.99999856448
9.99999906956
9.99999958402
10.0000001052
10.00000063
10.0000011547
10.0000016749
10.0000021861
10.0000026835
10.0000031625
10.0000036186
10.0000040476
10.000004446
10.0000048106
10.0000051391
10.0000054299
10.000005682
10.0000058951
10.0000060694
10.000006206
10.000006306
10.0000063707
10.000006402
10.0000064018
10.0000063724
10.0000063164
10.0000062366
10.0000061356
10.0000060164
10.0000058817
10.0000057344
10.0000055771
10.0000054125
10.000005243
10.0000050708
10.0000048982
10.0000047269
10.0000045588
10.0000043953
10.0000042378
10.0000040874
10.000003945
10.0000038116
10.0000036876
10.0000035738
10.0000034706
10.0000033786
10.0000032981
10.0000032294
10.0000031727
10.0000031277
10.0000030932
10.0000030672
10.0000030466
10.0000030282
10.0000030096
10.000002995
10.0000000005
10.00000001
10.0000000199
10.0000000306
10.0000000419
10.0000000527
10.0000000618
10.0000000683
10.0000000715
10.0000000712
10.0000000674
10.0000000603
10.00000005
10.0000000367
10.0000000203
10.0000000006
9.99999997714
9.99999994954
9.99999991697
9.99999987727
9.99999983028
9.99999977552
9.99999971238
9.99999964017
9.9999995582
9.99999946575
9.99999936215
9.99999924677
9.99999911909
9.99999897864
9.99999882514
9.9999986584
9.99999847846
9.99999828548
9.9999980799
9.99999786227
9.99999763352
9.99999739464
9.99999714704
9.99999689235
9.99999663301
9.99999637152
9.9999961108
9.99999585385
9.99999560401
9.99999536466
9.99999513939
9.99999493169
9.99999474503
9.9999945826
9.99999444725
9.99999434139
9.99999426688
9.99999422499
9.99999421639
9.99999424127
9.99999429928
9.99999438983
9.99999451201
9.99999466491
9.99999484751
9.9999950589
9.99999529808
9.99999556414
9.99999585597
9.99999617246
9.99999651227
9.99999687411
9.9999972566
9.99999765852
9.99999807857
9.99999851543
9.99999896747
9.99999943269
9.99999990853
10.0000003919
10.0000008791
10.000001366
10.0000018482
10.000002321
10.0000027797
10.0000032199
10.0000036374
10.0000040284
10.0000043896
10.0000047185
10.0000050131
10.000005272
10.0000054945
10.0000056806
10.0000058312
10.0000059467
10.0000060281
10.0000060767
10.0000060943
10.000006083
10.0000060452
10.0000059834
10.0000059003
10.0000057986
10.0000056809
10.0000055501
10.0000054087
10.0000052592
10.0000051041
10.0000049456
10.0000047858
10.0000046265
10.0000044695
10.0000043164
10.0000041683
10.0000040266
10.000003892
10.0000037656
10.0000036478
10.0000035395
10.000003441
10.0000033528
10.0000032754
10.0000032091
10.0000031541
10.00000311
10.0000030758
10.0000030493
10.0000030272
10.0000030072
10.0000029901
10.0000029753
10.0000000009
10.0000000116
10.0000000213
10.0000000287
10.0000000349
10.0000000394
10.0000000416
10.0000000413
10.0000000384
10.000000033
10.0000000253
10.0000000156
10.000000004
9.99999999062
9.99999997543
9.99999995832
9.99999993905
9.99999991726
9.99999989251
9.99999986387
9.99999983065
9.99999979216
9.99999974778
9.99999969684
9.99999963876
9.99999957294
9.99999949888
9.99999941607
9.99999932421
9.99999922298
9.99999911233
9.99999899219
9.99999886282
9.9999987245
9.99999857784
9.99999842347
9.99999826239
9.9999980956
9.99999792442
9.99999775022
9.99999757479
9.99999739989
9.99999722759
9.99999705987
9.99999689889
9.99999674664
9.99999660514
9.99999647617
9.99999636134
9.99999626195
9.99999617898
9.99999611306
9.99999606447
9.99999603321
9.99999601902
9.99999602157
9.99999604044
9.9999960754
9.99999612636
9.99999619356
9.99999627748
9.99999637899
9.99999649904
9.99999663881
9.99999679936
9.99999698167
9.99999718643
9.99999741418
9.99999766508
9.99999793918
9.99999823612
9.99999855529
9.99999889553
9.9999992552
9.999999632
10.0000000231
10.0000004249
10.0000008337
10.0000012451
10.0000016546
10.0000020579
10.0000024504
10.000002828
10.0000031869
10.0000035235
10.0000038351
10.0000041193
10.0000043744
10.0000045992
10.000004793
10.000004956
10.0000050883
10.0000051907
10.0000052641
10.0000053099
10.0000053297
10.0000053252
10.0000052986
10.000005252
10.0000051877
10.0000051079
10.0000050151
10.0000049114
10.0000047992
10.0000046805
10.0000045573
10.0000044315
10.0000043049
10.000004179
10.0000040552
10.0000039347
10.0000038187
10.0000037081
10.0000036036
10.0000035059
10.0000034156
10.0000033331
10.0000032589
10.0000031934
10.000003137
10.0000030898
10.0000030518
10.0000030223
10.000003
10.0000029809
10.0000029634
10.0000029494
10.0000029347
10.0000000006
10.0000000133
10.000000024
10.0000000308
10.000000034
10.0000000342
10.0000000326
10.0000000282
10.0000000216
10.0000000129
10.0000000028
9.99999999164
9.99999997965
9.99999996707
9.99999995402
9.99999994053
9.9999999265
9.99999991175
9.99999989603
9.99999987894
9.99999986
9.9999998387
9.99999981453
9.99999978698
9.9999997556
9.99999971995
9.99999967971
9.99999963456
9.99999958434
9.99999952895
9.99999946841
9.99999940286
9.99999933257
9.9999992579
9.99999917938
9.9999990976
9.9999990133
9.99999892724
9.99999884031
9.99999875335
9.9999986673
9.99999858304
9.99999850146
9.99999842332
9.99999834934
9.99999828006
9.9999982159
9.99999815706
9.99999810362
9.99999805545
9.99999801229
9.99999797379
9.99999793952
9.99999790907
9.99999788212
9.99999785853
9.9999978384
9.99999782214
9.99999781052
9.9999978047
9.99999780618
9.99999781678
9.99999783849
9.99999787343
9.9999979236
9.99999799093
9.999998077
9.99999818323
9.99999831072
9.99999846039
9.99999863281
9.99999882821
9.99999904631
9.99999928624
9.99999954648
9.99999982487
10.0000001186
10.0000004245
10.0000007388
10.0000010576
10.0000013769
10.0000016927
10.0000020011
10.0000022985
10.0000025817
10.0000028478
10.0000030946
10.0000033201
10.0000035229
10.0000037024
10.0000038579
10.0000039897
10.000004098
10.0000041834
10.0000042468
10.0000042894
10.0000043126
10.0000043178
10.0000043066
10.0000042807
10.000004242
10.0000041922
10.0000041331
10.0000040664
10.0000039938
10.0000039168
10.000003837
10.0000037556
10.000003674
10.0000035933
10.0000035143
10.0000034381
10.0000033652
10.0000032964
10.0000032321
10.0000031727
10.0000031186
10.0000030702
10.0000030277
10.0000029913
10.0000029612
10.0000029374
10.0000029196
10.0000029068
10.0000028978
10.00000289
10.000002888
10.0000028731
10.0000000009
10.0000000156
10.0000000283
10.0000000356
10.0000000375
10.000000035
10.0000000298
10.0000000237
10.000000016
10.0000000072
9.99999999778
9.99999998826
9.999999979
9.99999997025
9.99999996219
9.99999995489
9.99999994835
9.99999994247
9.99999993712
9.9999999321
9.99999992714
9.99999992193
9.99999991615
9.99999990946
9.99999990156
9.99999989217
9.99999988108
9.99999986809
9.99999985311
9.99999983611
9.99999981711
9.99999979622
9.99999977362
9.99999974953
9.99999972424
9.99999969807
9.99999967136
9.99999964445
9.99999961766
9.99999959125
9.99999956544
9.99999954035
9.99999951602
9.99999949238
9.99999946926
9.99999944639
9.9999994234
9.99999939986
9.9999993753
9.9999993492
9.99999932111
9.99999929058
9.99999925731
9.9999992211
9.99999918197
9.99999914016
9.99999909618
9.99999905088
9.99999900542
9.99999896133
9.99999892039
9.99999888463
9.99999885619
9.99999883721
9.9999988297
9.99999883549
9.99999885613
9.99999889297
9.99999894717
9.9999990197
9.99999911138
9.99999922273
9.99999935386
9.99999950439
9.9999996734
9.99999985938
10.0000000603
10.0000002737
10.0000004967
10.0000007263
10.0000009593
10.0000011924
10.0000014226
10.0000016468
10.0000018625
10.0000020672
10.0000022591
10.0000024364
10.0000025982
10.0000027436
10.0000028721
10.0000029839
10.000003079
10.000003158
10.0000032216
10.0000032705
10.0000033059
10.0000033287
10.0000033401
10.0000033415
10.0000033339
10.0000033187
10.000003297
10.0000032701
10.0000032391
10.000003205
10.0000031688
10.0000031314
10.0000030936
10.0000030561
10.0000030196
10.0000029844
10.0000029511
10.0000029201
10.0000028915
10.0000028658
10.0000028429
10.0000028232
10.0000028068
10.0000027939
10.0000027844
10.0000027785
10.0000027758
10.0000027758
10.0000027782
10.0000027809
10.0000027922
10.0000027837
10.0000000011
10.0000000177
10.0000000324
10.0000000411
10.0000000428
10.0000000388
10.0000000315
10.000000023
10.0000000149
10.0000000072
9.99999999998
9.99999999368
9.99999998868
9.99999998521
9.99999998345
9.99999998346
9.99999998524
9.99999998871
9.99999999376
10.0000000002
10.0000000079
10.0000000165
10.0000000258
10.0000000356
10.0000000457
10.0000000557
10.0000000656
10.0000000751
10.0000000841
10.0000000926
10.0000001005
10.0000001077
10.0000001142
10.0000001202
10.0000001255
10.0000001302
10.0000001343
10.0000001379
10.0000001408
10.0000001429
10.000000144
10.000000144
10.0000001424
10.0000001389
10.0000001331
10.0000001246
10.0000001128
10.0000000972
10.0000000776
10.0000000535
10.0000000247
9.99999999091
9.99999995221
9.99999990865
9.99999986053
9.99999980835
9.99999975286
9.99999969509
9.99999963639
9.99999957841
9.99999952301
9.99999947227
9.99999942825
9.99999939297
9.99999936815
9.99999935526
9.99999935535
9.99999936926
9.99999939761
9.99999944094
9.9999994997
9.99999957415
9.99999966428
9.99999976965
9.9999998894
10.0000000222
10.0000001664
10.0000003199
10.0000004806
10.000000646
10.0000008137
10.0000009814
10.0000011468
10.0000013079
10.0000014626
10.0000016095
10.0000017473
10.0000018749
10.0000019916
10.0000020971
10.0000021911
10.000002274
10.0000023458
10.0000024072
10.0000024588
10.0000025012
10.0000025354
10.000002562
10.0000025821
10.0000025963
10.0000026057
10.0000026109
10.0000026129
10.0000026121
10.0000026094
10.0000026054
10.0000026004
10.0000025951
10.0000025897
10.0000025846
10.0000025801
10.0000025764
10.0000025736
10.0000025719
10.0000025714
10.0000025721
10.0000025741
10.0000025774
10.0000025821
10.0000025884
10.0000025963
10.0000026056
10.0000026167
10.0000026286
10.0000026422
10.0000026546
10.0000026754
10.0000026781
10.0000000015
10.0000000197
10.0000000362
10.0000000464
10.0000000485
10.0000000438
10.0000000349
10.0000000248
10.0000000156
10.0000000086
10.0000000035
10.0000000003
9.99999999925
10.0000000006
10.0000000043
10.0000000105
10.0000000191
10.00000003
10.000000043
10.000000058
10.0000000747
10.000000093
10.0000001124
10.0000001329
10.0000001541
10.0000001759
10.0000001979
10.0000002201
10.000000242
10.0000002638
10.000000285
10.0000003058
10.0000003257
10.000000345
10.000000363
10.0000003802
10.0000003958
10.0000004102
10.0000004228
10.0000004335
10.000000442
10.000000448
10.0000004511
10.000000451
10.0000004472
10.0000004394
10.0000004271
10.0000004101
10.0000003881
10.0000003609
10.0000003284
10.0000002905
10.0000002475
10.0000001995
10.000000147
10.0000000905
10.000000031
9.99999996953
9.99999990751
9.99999984666
9.99999978896
9.9999997365
9.99999969139
9.99999965556
9.99999963061
9.99999961773
9.99999961767
9.99999963086
9.99999965755
9.99999969785
9.99999975182
9.99999981928
9.99999989982
9.99999999258
10.0000000964
10.0000002097
10.0000003306
10.0000004571
10.0000005872
10.0000007187
10.0000008497
10.0000009785
10.0000011032
10.0000012226
10.0000013355
10.0000014411
10.0000015386
10.0000016277
10.0000017082
10.0000017804
10.0000018443
10.0000019005
10.0000019494
10.0000019916
10.000002028
10.000002059
10.0000020856
10.0000021084
10.000002128
10.0000021451
10.0000021603
10.000002174
10.0000021868
10.0000021991
10.000002211
10.000002223
10.0000022351
10.0000022476
10.0000022605
10.0000022739
10.0000022878
10.0000023022
10.0000023171
10.0000023324
10.0000023482
10.0000023644
10.0000023809
10.0000023978
10.0000024152
10.0000024329
10.0000024514
10.0000024702
10.0000024901
10.0000025098
10.0000025313
10.0000025504
10.0000025781
10.0000025894
10.0000000017
10.0000000211
10.0000000391
10.0000000509
10.000000054
10.0000000491
10.0000000393
10.000000028
10.0000000179
10.0000000106
10.0000000068
10.000000006
10.0000000081
10.0000000131
10.000000021
10.0000000316
10.0000000449
10.0000000607
10.0000000788
10.000000099
10.000000121
10.0000001446
10.0000001695
10.0000001954
10.000000222
10.0000002493
10.0000002766
10.0000003042
10.0000003313
10.0000003582
10.0000003841
10.0000004097
10.0000004335
10.000000457
10.0000004781
10.0000004986
10.0000005163
10.0000005331
10.0000005466
10.0000005587
10.0000005672
10.0000005734
10.0000005759
10.000000575
10.00000057
10.0000005608
10.000000547
10.0000005283
10.0000005046
10.0000004758
10.0000004418
10.0000004026
10.0000003585
10.0000003098
10.0000002567
10.0000001999
10.0000001403
10.0000000788
10.000000017
9.99999995663
9.99999989984
9.99999984897
9.99999980627
9.99999977389
9.99999975343
9.99999974605
9.99999975223
9.99999977214
9.99999980564
9.99999985255
9.99999991265
9.99999998547
10.0000000703
10.0000001659
10.0000002707
10.0000003828
10.0000005
10.0000006201
10.0000007409
10.0000008603
10.0000009764
10.0000010878
10.000001193
10.0000012912
10.0000013816
10.0000014639
10.000001538
10.0000016039
10.0000016619
10.0000017127
10.0000017567
10.0000017947
10.0000018273
10.0000018555
10.0000018799
10.0000019013
10.0000019204
10.0000019378
10.0000019542
10.0000019699
10.0000019855
10.0000020012
10.0000020174
10.0000020341
10.0000020515
10.0000020697
10.0000020886
10.0000021083
10.0000021285
10.0000021494
10.0000021707
10.0000021923
10.0000022141
10.0000022361
10.0000022582
10.0000022802
10.0000023022
10.0000023241
10.0000023461
10.000002368
10.0000023905
10.0000024127
10.0000024364
10.0000024587
10.0000024846
10.0000025056
10.0000025387
10.0000025509
10.0000000021
10.0000000223
10.0000000411
10.0000000541
10.0000000584
10.0000000538
10.0000000436
10.0000000314
10.0000000206
10.000000013
10.0000000096
10.0000000103
10.0000000146
10.0000000224
10.0000000332
10.000000047
10.0000000635
10.0000000823
10.0000001034
10.0000001264
10.000000151
10.0000001771
10.0000002043
10.0000002324
10.0000002609
10.0000002901
10.0000003188
10.000000348
10.0000003759
10.0000004044
10.0000004305
10.0000004575
10.0000004809
10.0000005057
10.0000005256
10.0000005476
10.0000005635
10.0000005817
10.0000005933
10.0000006066
10.0000006134
10.0000006205
10.0000006219
10.0000006215
10.0000006163
10.0000006075
10.000000594
10.000000576
10.0000005532
10.0000005255
10.000000493
10.0000004556
10.0000004137
10.0000003673
10.0000003168
10.0000002626
10.0000002053
10.0000001461
10.0000000861
10.0000000273
9.99999997189
9.9999999223
9.99999988106
9.99999985049
9.99999983238
9.99999982792
9.99999983766
9.99999986172
9.99999990004
9.99999995244
10.0000000187
10.0000000982
10.00000019
10.0000002926
10.0000004039
10.0000005218
10.0000006437
10.000000767
10.0000008892
10.0000010083
10.0000011223
10.0000012298
10.0000013294
10.0000014206
10.0000015028
10.000001576
10.0000016404
10.0000016963
10.0000017445
10.0000017856
10.0000018205
10.0000018501
10.0000018752
10.0000018968
10.0000019156
10.0000019324
10.0000019479
10.0000019627
10.0000019773
10.0000019921
10.0000020074
10.0000020234
10.0000020403
10.0000020582
10.000002077
10.0000020966
10.000002117
10.0000021381
10.0000021596
10.0000021815
10.0000022037
10.0000022259
10.000002248
10.00000227
10.0000022918
10.0000023133
10.0000023347
10.0000023556
10.0000023767
10.0000023974
10.0000024189
10.0000024397
10.0000024628
10.0000024834
10.00000251
10.0000025285
10.0000025647
10.0000025724
10.0000000022
10.0000000229
10.0000000424
10.0000000565
10.0000000619
10.000000058
10.0000000477
10.0000000349
10.0000000233
10.0000000153
10.0000000119
10.0000000135
10.0000000193
10.0000000289
10.0000000419
10.000000058
10.0000000766
10.0000000975
10.0000001203
10.0000001449
10.0000001708
10.000000198
10.0000002257
10.0000002546
10.0000002831
10.0000003128
10.0000003409
10.0000003707
10.0000003973
10.0000004267
10.0000004505
10.0000004793
10.0000004991
10.0000005271
10.0000005421
10.0000005687
10.0000005786
10.0000006028
10.0000006079
10.0000006279
10.000000629
10.0000006423
10.0000006401
10.0000006444
10.0000006385
10.0000006328
10.000000621
10.0000006056
10.0000005857
10.0000005612
10.0000005325
10.0000004993
10.0000004617
10.0000004198
10.0000003736
10.0000003232
10.0000002691
10.0000002122
10.0000001535
10.0000000952
10.0000000395
9.99999998923
9.99999994735
9.99999991663
9.99999989907
9.99999989601
9.99999990786
9.99999993467
9.99999997624
10.0000000324
10.0000001031
10.0000001878
10.0000002854
10.000000394
10.0000005119
10.0000006359
10.0000007638
10.0000008926
10.0000010195
10.0000011422
10.0000012584
10.0000013669
10.0000014669
10.0000015576
10.0000016388
10.0000017105
10.0000017731
10.0000018272
10.0000018736
10.0000019131
10.0000019468
10.0000019754
10.000002
10.0000020215
10.0000020405
10.000002058
10.0000020745
10.0000020906
10.0000021066
10.0000021229
10.0000021397
10.0000021572
10.0000021753
10.0000021942
10.0000022136
10.0000022336
10.0000022539
10.0000022744
10.0000022949
10.0000023153
10.0000023355
10.0000023553
10.0000023747
10.0000023934
10.0000024118
10.0000024295
10.0000024469
10.0000024637
10.0000024806
10.0000024968
10.0000025144
10.0000025305
10.0000025502
10.0000025661
10.0000025904
10.0000026039
10.0000026393
10.0000026416
10.0000000024
10.0000000233
10.0000000427
10.0000000575
10.0000000639
10.0000000608
10.0000000507
10.0000000375
10.0000000254
10.0000000168
10.0000000132
10.0000000151
10.0000000218
10.0000000327
10.0000000473
10.000000065
10.0000000852
10.0000001076
10.0000001316
10.0000001573
10.0000001836
10.0000002115
10.0000002391
10.0000002684
10.000000296
10.0000003263
10.0000003525
10.0000003836
10.0000004069
10.0000004392
10.0000004576
10.0000004919
10.0000005032
10.0000005407
10.0000005431
10.0000005846
10.0000005771
10.0000006216
10.0000006055
10.0000006495
10.0000006287
10.0000006658
10.0000006457
10.0000006689
10.0000006531
10.000000659
10.0000006458
10.0000006365
10.0000006209
10.0000006012
10.0000005788
10.0000005514
10.0000005204
10.0000004846
10.0000004441
10.0000003988
10.0000003489
10.0000002951
10.0000002385
10.0000001808
10.0000001246
10.0000000729
10.0000000288
9.9999999955
9.99999997518
9.9999999693
9.99999997842
10.0000000028
10.0000000425
10.000000098
10.0000001691
10.0000002558
10.0000003563
10.0000004694
10.000000593
10.0000007237
10.0000008582
10.0000009932
10.0000011256
10.0000012529
10.000001373
10.0000014847
10.0000015869
10.0000016792
10.0000017614
10.0000018343
10.0000018983
10.0000019541
10.0000020026
10.0000020445
10.000002081
10.0000021129
10.0000021411
10.0000021665
10.0000021898
10.0000022116
10.0000022325
10.0000022529
10.0000022732
10.0000022935
10.0000023141
10.0000023348
10.0000023558
10.0000023768
10.0000023979
10.0000024188
10.0000024394
10.0000024594
10.0000024788
10.0000024974
10.0000025152
10.0000025319
10.0000025477
10.0000025624
10.0000025762
10.000002589
10.0000026013
10.0000026126
10.0000026241
10.0000026345
10.0000026465
10.0000026567
10.0000026711
10.0000026811
10.0000027007
10.0000027085
10.0000027394
10.0000027376
10.0000000025
10.0000000234
10.000000043
10.000000058
10.0000000651
10.0000000628
10.000000053
10.0000000396
10.0000000268
10.0000000175
10.0000000135
10.0000000152
10.0000000222
10.0000000339
10.0000000496
10.0000000685
10.0000000899
10.0000001136
10.0000001384
10.000000165
10.0000001916
10.0000002202
10.0000002471
10.0000002772
10.0000003032
10.0000003349
10.0000003579
10.0000003923
10.0000004097
10.0000004487
10.0000004566
10.0000005038
10.0000004973
10.0000005575
10.0000005308
10.000000609
10.0000005576
10.0000006558
10.0000005798
10.0000006933
10.0000006014
10.0000007155
10.0000006253
10.0000007179
10.0000006492
10.0000007023
10.0000006642
10.000000677
10.0000006611
10.0000006495
10.0000006364
10.0000006145
10.000000592
10.0000005623
10.0000005281
10.000000488
10.000000442
10.0000003909
10.0000003353
10.0000002769
10.0000002183
10.000000163
10.0000001146
10.0000000769
10.0000000527
10.0000000434
10.0000000495
10.0000000708
10.0000001079
10.000000161
10.0000002315
10.0000003179
10.0000004208
10.0000005379
10.0000006661
10.0000008017
10.0000009409
10.00000108
10.0000012159
10.0000013461
10.0000014686
10.0000015821
10.000001686
10.00000178
10.0000018641
10.0000019388
10.0000020048
10.0000020628
10.0000021141
10.0000021596
10.0000022001
10.0000022366
10.0000022699
10.0000023008
10.0000023299
10.0000023577
10.0000023847
10.0000024111
10.0000024373
10.0000024632
10.0000024889
10.0000025144
10.0000025394
10.000002564
10.0000025878
10.0000026107
10.0000026324
10.0000026529
10.000002672
10.0000026894
10.0000027053
10.0000027195
10.0000027321
10.000002743
10.0000027526
10.0000027606
10.0000027679
10.0000027737
10.0000027797
10.0000027841
10.0000027904
10.0000027943
10.000002803
10.0000028069
10.0000028206
10.0000028233
10.0000028473
10.0000028434
10.0000000025
10.000000023
10.0000000419
10.0000000569
10.0000000646
10.0000000631
10.0000000537
10.0000000403
10.0000000269
10.0000000169
10.0000000121
10.0000000134
10.0000000203
10.0000000324
10.0000000486
10.0000000685
10.0000000908
10.0000001156
10.000000141
10.0000001687
10.0000001953
10.0000002249
10.0000002509
10.0000002825
10.0000003061
10.0000003407
10.0000003588
10.0000003991
10.0000004071
10.0000004583
10.0000004487
10.0000005192
10.0000004809
10.0000005836
10.0000005014
10.0000006524
10.0000005099
10.0000007236
10.0000005102
10.0000007894
10.0000005123
10.0000008348
10.0000005308
10.0000008431
10.0000005754
10.0000008093
10.0000006391
10.0000007546
10.0000006919
10.0000007094
10.0000007036
10.0000006818
10.0000006758
10.0000006494
10.0000006261
10.0000005928
10.0000005542
10.0000005085
10.0000004559
10.0000003982
10.0000003384
10.0000002794
10.0000002251
10.0000001802
10.0000001479
10.0000001298
10.000000126
10.0000001374
10.0000001648
10.000000211
10.0000002759
10.0000003611
10.0000004654
10.0000005858
10.0000007183
10.0000008585
10.000001002
10.0000011448
10.0000012836
10.000001416
10.0000015401
10.0000016551
10.0000017603
10.0000018557
10.0000019417
10.0000020187
10.0000020876
10.0000021491
10.0000022041
10.0000022536
10.0000022987
10.0000023402
10.0000023791
10.0000024158
10.000002451
10.0000024852
10.0000025186
10.0000025515
10.000002584
10.000002616
10.0000026474
10.0000026782
10.000002708
10.0000027367
10.000002764
10.0000027896
10.0000028133
10.000002835
10.0000028545
10.0000028716
10.0000028864
10.0000028987
10.0000029089
10.0000029167
10.0000029228
10.0000029267
10.0000029296
10.0000029303
10.0000029314
10.0000029302
10.0000029312
10.0000029293
10.0000029324
10.0000029306
10.0000029384
10.0000029364
10.0000029529
10.0000029477
10.0000000026
10.0000000227
10.0000000413
10.0000000559
10.0000000637
10.0000000626
10.0000000536
10.00000004
10.0000000261
10.0000000151
10.0000000094
10.0000000099
10.0000000163
10.0000000283
10.0000000447
10.0000000652
10.0000000881
10.0000001139
10.0000001398
10.0000001687
10.0000001952
10.0000002262
10.0000002512
10.0000002849
10.0000003055
10.0000003441
10.0000003563
10.0000004046
10.0000004008
10.000000468
10.0000004356
10.0000005379
10.0000004555
10.0000006192
10.0000004548
10.0000007179
10.0000004283
10.0000008366
10.0000003769
10.0000009683
10.0000003149
10.0000010875
10.0000002767
10.0000011483
10.0000003107
10.0000011088
10.0000004447
10.0000009732
10.0000006313
10.000000821
10.0000007628
10.0000007446
10.0000007813
10.0000007344
10.0000007406
10.0000007081
10.000000683
10.0000006426
10.0000005903
10.0000005328
10.0000004714
10.0000004029
10.0000003363
10.0000002825
10.0000002436
10.0000002157
10.0000001974
10.0000001919
10.0000002053
10.0000002418
10.0000003032
10.0000003896
10.000000498
10.0000006239
10.0000007622
10.0000009076
10.0000010551
10.0000012006
10.0000013408
10.0000014735
10.0000015975
10.0000017121
10.000001817
10.0000019126
10.0000019993
10.000002078
10.0000021494
10.0000022145
10.0000022737
10.0000023282
10.0000023781
10.0000024251
10.0000024696
10.0000025124
10.0000025539
10.0000025944
10.0000026343
10.0000026736
10.0000027124
10.0000027505
10.0000027878
10.0000028239
10.0000028587
10.0000028917
10.0000029228
10.0000029514
10.0000029776
10.0000030008
10.0000030212
10.0000030384
10.0000030528
10.0000030638
10.0000030723
10.0000030775
10.0000030808
10.0000030809
10.0000030802
10.0000030764
10.0000030734
10.0000030668
10.0000030634
10.0000030556
10.0000030541
10.0000030463
10.000003049
10.0000030417
10.0000030513
10.0000030435
10.0000000024
10.0000000217
10.0000000391
10.0000000531
10.000000061
10.0000000603
10.0000000517
10.0000000382
10.0000000238
10.0000000119
10.000000005
10.0000000045
10.00000001
10.0000000215
10.0000000378
10.0000000587
10.0000000819
10.0000001087
10.0000001351
10.0000001651
10.0000001917
10.0000002242
10.0000002483
10.000000284
10.0000003024
10.0000003445
10.0000003518
10.0000004069
10.0000003932
10.0000004745
10.0000004217
10.0000005534
10.0000004293
10.0000006533
10.0000004041
10.0000007886
10.0000003306
10.000000975
10.0000001956
10.00000122
10.000000002
10.0000015025
9.99999979344
10.0000017484
9.99999968078
10.0000018259
9.99999980274
10.0000016205
10.0000002015
10.0000011928
10.000000684
10.0000008343
10.0000009303
10.0000007692
10.0000009016
10.0000008189
10.0000008437
10.0000007881
10.0000007469
10.0000007128
10.0000006411
10.0000005341
10.0000004635
10.000000436
10.0000003859
10.0000002702
10.0000001187
9.99999999572
9.99999995134
9.99999999268
10.0000001008
10.0000002479
10.0000004122
10.0000005814
10.0000007501
10.0000009157
10.0000010762
10.0000012298
10.0000013747
10.0000015098
10.0000016346
10.0000017491
10.0000018536
10.0000019489
10.0000020359
10.0000021158
10.0000021895
10.000002258
10.000002322
10.0000023822
10.0000024391
10.0000024928
10.0000025443
10.0000025943
10.000002643
10.0000026908
10.0000027377
10.0000027839
10.0000028292
10.0000028735
10.0000029166
10.0000029581
10.0000029978
10.0000030351
10.0000030699
10.0000031016
10.0000031301
10.000003155
10.0000031766
10.0000031939
10.0000032082
10.0000032179
10.0000032251
10.0000032276
10.0000032289
10.0000032249
10.0000032217
10.0000032124
10.0000032066
10.0000031933
10.0000031871
10.000003171
10.0000031668
10.0000031489
10.0000031485
10.0000031292
10.0000031338
10.0000031127
10.0000000026
10.0000000208
10.0000000379
10.0000000508
10.000000058
10.0000000574
10.000000049
10.0000000354
10.0000000204
10.0000000076
9.99999999945
9.99999999747
10.0000000017
10.0000000125
10.0000000282
10.0000000492
10.0000000726
10.0000001001
10.000000127
10.0000001581
10.0000001852
10.0000002187
10.0000002429
10.0000002796
10.0000002976
10.0000003409
10.0000003469
10.0000004041
10.0000003877
10.0000004732
10.0000004141
10.0000005559
10.0000004163
10.0000006662
10.0000003765
10.0000008271
10.0000002668
10.0000010729
10.000000049
10.0000014441
9.99999968609
10.0000019643
9.99999918301
10.0000025842
9.99999866247
10.0000031008
9.99999841765
10.0000031484
9.99999882259
10.0000024414
9.99999993024
10.0000012854
10.0000010375
10.0000006437
10.00000127
10.0000008278
10.0000010683
10.0000008741
10.0000010016
10.0000009713
10.0000006726
10.0000005369
10.0000008204
10.0000009124
10.0000001076
9.99999845643
9.99999668287
9.99999554362
9.999995366
9.99999600248
9.99999706754
9.99999818913
9.99999914401
9.99999986355
10.0000003745
10.0000007357
10.0000010016
10.0000012097
10.0000013826
10.0000015327
10.0000016669
10.0000017891
10.0000019012
10.0000020044
10.0000020994
10.0000021868
10.0000022671
10.0000023411
10.0000024094
10.0000024731
10.0000025328
10.0000025894
10.0000026429
10.000002695
10.0000027462
10.000002797
10.0000028475
10.0000028975
10.0000029472
10.0000029959
10.0000030436
10.0000030896
10.0000031336
10.0000031748
10.0000032132
10.0000032477
10.0000032789
10.0000033052
10.0000033282
10.0000033453
10.0000033599
10.0000033675
10.0000033743
10.0000033725
10.000003373
10.0000033623
10.0000033584
10.000003339
10.0000033333
10.0000033051
10.0000033
10.0000032621
10.0000032599
10.0000032102
10.0000032116
10.0000031465
10.0000031501
10.0000030642
10.0000000023
10.0000000192
10.0000000348
10.0000000469
10.0000000533
10.0000000526
10.0000000444
10.000000031
10.0000000156
10.000000002
9.99999999241
9.99999998884
9.99999999161
10.0000000013
10.0000000163
10.0000000371
10.0000000607
10.0000000886
10.0000001163
10.0000001479
10.000000176
10.0000002098
10.0000002353
10.0000002716
10.0000002915
10.0000003329
10.0000003425
10.000000395
10.0000003856
10.0000004616
10.0000004161
10.00000054
10.0000004245
10.0000006443
10.0000003924
10.0000008007
10.0000002859
10.0000010553
10.0000000464
10.0000014817
9.99999958619
10.0000021775
9.9999988148
10.0000032146
9.99999772245
10.0000045017
9.99999656482
10.0000055588
9.99999607746
10.0000054257
9.99999729148
10.0000033381
10.0000002297
10.0000005258
10.0000023015
10.0000001504
10.0000015606
10.0000009374
10.000001857
10.0000006084
9.99999978529
10.0000019635
10.0000040167
9.9999985058