/*--------------------------------*- C++ -*----------------------------------*\
  =========                 |
  \\      /  F ield         | OpenFOAM: The Open Source CFD Toolbox
   \\    /   O peration     | Website:  https://openfoam.org
    \\  /    A nd           | Version:  7
     \\/     M anipulation  |
\*---------------------------------------------------------------------------*/
FoamFile
{
    version     2.0;
    format      ascii;
    class       volScalarField;
    location    "3120";
    object      p;
}
// * * * * * * * * * * * * * * * * * * * * * * * * * * * * * * * * * * * * * //

dimensions      [0 2 -2 0 0 0 0];

internalField   nonuniform List<scalar> 
8192
(
0.00055481977778
0.000383264380956
0.000297633941588
0.000253500761031
0.000228454690014
0.000213196960423
0.000203310508833
0.000196551173623
0.000191712174849
0.000188109441839
0.000185335493742
0.000183136259063
0.000181346696299
0.000179855689574
0.000178586099388
0.000177482966984
0.00017650627426
0.000175626343476
0.000174820820587
0.000174072639881
0.000173368615152
0.000172698441918
0.000172053975978
0.000171428701801
0.000170817333751
0.000170215511658
0.000169619564173
0.000169026321083
0.00016843296098
0.000167836884059
0.00016723560236
0.000166626641893
0.000166007451645
0.000165375315176
0.000164727261356
0.000164059971333
0.000163369679121
0.00016265206366
0.000161902130668
0.000161114083327
0.000160281181865
0.000159395593554
0.000158448236702
0.000157428625075
0.000156324722855
0.000155122824927
0.000153807482745
0.00015236150203
0.00015076604417
0.000149000867452
0.000147044745174
0.00014487609343
0.000142473829727
0.000139818463327
0.000136893389141
0.00013368632122
0.000130190763146
0.000126407376911
0.000122345085962
0.000118021740107
0.000113464188761
0.000108707662334
0.000103794451661
9.87719912161e-05
9.36905658084e-05
8.86009340369e-05
8.35521661722e-05
7.85899174087e-05
7.37552275463e-05
6.90838202762e-05
6.46057887142e-05
6.03455236025e-05
5.6321763821e-05
5.25477010326e-05
4.90311255117e-05
4.57746392276e-05
4.27759764929e-05
4.00284631068e-05
3.75216199955e-05
3.52418877535e-05
3.31734243421e-05
3.12989158166e-05
2.96003408959e-05
2.80596418168e-05
2.6659271418e-05
2.53826047635e-05
2.42142191576e-05
2.31400572678e-05
2.2147493984e-05
2.12253294172e-05
2.0363729273e-05
1.9554130988e-05
1.87891304379e-05
1.80623604501e-05
1.73683691143e-05
1.67025032306e-05
1.60608001285e-05
1.5439889563e-05
1.48369062795e-05
1.42494131286e-05
1.36753341344e-05
1.3112896674e-05
1.25605817905e-05
1.20170816425e-05
1.14812631106e-05
1.09521366523e-05
1.04288295743e-05
9.91056298677e-06
9.39663180186e-06
8.88638724314e-06
8.37922144823e-06
7.87455388033e-06
7.37181943837e-06
6.87045838931e-06
6.36990860024e-06
5.86960108474e-06
5.36896075663e-06
4.86741572714e-06
4.36442097053e-06
3.85950656118e-06
3.35236871871e-06
2.84303715063e-06
2.33218251662e-06
1.82169120967e-06
1.31577787517e-06
8.23261919356e-07
3.63163430779e-07
3.03102751743e-08
0.000405911783627
0.000342392144765
0.000292690991363
0.000260023817842
0.000238085101079
0.000222885996327
0.000212048800487
0.000204109266433
0.000198142516345
0.000193550351145
0.000189936766618
0.000187033559025
0.000184655039737
0.000182669952755
0.000180983719395
0.000179526985316
0.000178248081711
0.000177107962409
0.000176076736835
0.000175131251014
0.000174253369627
0.000173428735361
0.000172645858685
0.000171895439922
0.000171169856919
0.000170462772199
0.000169768827137
0.000169083399951
0.000168402410617
0.000167722160022
0.000167039193746
0.000166350183853
0.000165651822697
0.000164940723772
0.000164213325944
0.000163465797991
0.000162693940882
0.000161893085851
0.000161057986838
0.000160182706715
0.000159260497657
0.000158283677368
0.000157243504677
0.000156130060381
0.000154932142191
0.000153637186338
0.000152231232579
0.000150698953859
0.000149023775964
0.000147188115375
0.000145173763711
0.000142962443161
0.000140536547508
0.000137880066685
0.000134979669401
0.000131825889662
0.000128414332496
0.000124746786306
0.000120832109478
0.000116686753176
0.000112334797199
0.000107807417764
0.000103141777822
9.83794243429e-05
9.35643710871e-05
8.87411067508e-05
8.39527753519e-05
7.92397118477e-05
7.46384054991e-05
7.0180870874e-05
6.58943360868e-05
6.18011333818e-05
5.79186975787e-05
5.42596200691e-05
5.08317495793e-05
4.76383608708e-05
4.46784226637e-05
4.19469875969e-05
3.9435706535e-05
3.71334456946e-05
3.50269659198e-05
3.31016139557e-05
3.13419768258e-05
2.97324601641e-05
2.82577656266e-05
2.69032573342e-05
2.56552197826e-05
2.45010184109e-05
2.34291788782e-05
2.24294027073e-05
2.14925362488e-05
2.06105078688e-05
1.97762455864e-05
1.89835846545e-05
1.82271720569e-05
1.75023727782e-05
1.68051809936e-05
1.61321380397e-05
1.54802580684e-05
1.48469616374e-05
1.42300170369e-05
1.36274888879e-05
1.30376933877e-05
1.24591595119e-05
1.18905954667e-05
1.13308597152e-05
1.07789359484e-05
1.02339114404e-05
9.69495830601e-06
9.16131726905e-06
8.63228365947e-06
8.1071954851e-06
7.58542359662e-06
7.06636419213e-06
6.54943423868e-06
6.03407086618e-06
5.51973651902e-06
5.00593275978e-06
4.4922273615e-06
3.97830206822e-06
3.46403282203e-06
2.9496214502e-06
2.43580981324e-06
1.92422829735e-06
1.41796746013e-06
9.2255644422e-07
4.47254571341e-07
6.73506565359e-08
0.000322979206656
0.000300303343489
0.00027429931255
0.000253048756434
0.000236915317804
0.000224590973494
0.000215056976809
0.000207586161815
0.000201656795847
0.000196889841548
0.000193007087409
0.000189802528611
0.000187122343017
0.000184850692924
0.000182899583409
0.000181201579091
0.000179704544823
0.000178367823602
0.000177159438384
0.000176054026666
0.000175031302427
0.000174074900173
0.000173171497864
0.000172310144919
0.000171481742149
0.000170678634981
0.000169894291644
0.000169123045315
0.000168359884574
0.000167600279839
0.0001668400365
0.000166075168589
0.000165301786858
0.000164515996241
0.000163713799292
0.000162891002632
0.000162043124006
0.000161165298129
0.000160252180101
0.000159297845838
0.000158295689881
0.000157238322041
0.000156117465823
0.000154923863508
0.00015364719516
0.000152276021815
0.000150797766523
0.000149198750645
0.000147464306326
0.0001455789887
0.00014352691194
0.000141292230471
0.000138859778886
0.000136215870381
0.000133349233556
0.000130252042656
0.000126920969426
0.000123358159985
0.000119572021579
0.000115577696689
0.000111397111133
0.000107058515708
0.000102595502956
9.80455683057e-05
9.34483781163e-05
8.88439702461e-05
8.42711253174e-05
7.97660808697e-05
7.53616444965e-05
7.10866764073e-05
6.69658467827e-05
6.3019554124e-05
5.92639181674e-05
5.57108054271e-05
5.23678875888e-05
4.92387597159e-05
4.63231521075e-05
4.36172590604e-05
4.11141865383e-05
3.88044973862e-05
3.66768148207e-05
3.47184369069e-05
3.2915917089e-05
3.12555759124e-05
2.97239227606e-05
2.83079799766e-05
2.69955126239e-05
2.57751744074e-05
2.46365840016e-05
2.35703470166e-05
2.25680379414e-05
2.16221545207e-05
2.07260547141e-05
1.98738841142e-05
1.90604996346e-05
1.82813935727e-05
1.75326207662e-05
1.68107305293e-05
1.61127042652e-05
1.54358991208e-05
1.47779976563e-05
1.41369632795e-05
1.35110010317e-05
1.28985232524e-05
1.22981196107e-05
1.17085310094e-05
1.11286268887e-05
1.05573855109e-05
9.99387686253e-06
9.43724788144e-06
8.88670980531e-06
8.34152753667e-06
7.80101105324e-06
7.26450905873e-06
6.73140529625e-06
6.20111825217e-06
5.67310540557e-06
5.14687377043e-06
4.62199931634e-06
4.09815903454e-06
3.57518112271e-06
3.05312126736e-06
2.53237684693e-06
2.01385647493e-06
1.49922835471e-06
9.91220103187e-07
4.93405279104e-07
7.75092902783e-08
0.000278450671614
0.000270048124074
0.000255839376232
0.000242030531298
0.000230586302735
0.000221296674196
0.000213709493059
0.000207456906192
0.000202261004438
0.000197909323936
0.000194236112368
0.000191110252355
0.000188427211079
0.000186103283944
0.000184071244156
0.000182276952047
0.000180676677286
0.000179234975364
0.000177923002717
0.000176717180103
0.000175598131883
0.000174549843123
0.000173558988162
0.000172614393868
0.000171706608584
0.000170827553943
0.00016997024162
0.000169128540886
0.000168296986077
0.000167470614232
0.000166644826091
0.000165815266058
0.000164977715647
0.000164127996072
0.000163261877285
0.000162374990892
0.000161462744849
0.000160520238314
0.000159542175509
0.00015852277801
0.000157455695554
0.000156333916401
0.000155149679391
0.000153894391476
0.000152558556439
0.000151131723128
0.000149602464547
0.00014795840271
0.000146186297756
0.000144272223012
0.000142201849307
0.000139960860638
0.000137535517472
0.00013491337225
0.000132084123368
0.000129040570125
0.000125779604688
0.000122303151826
0.000118618947015
0.000114741032124
0.000110689850349
0.000106491847152
0.000102178542146
9.77851299007e-05
9.3348775268e-05
8.89068451585e-05
8.4495340548e-05
8.01477121846e-05
7.58941002318e-05
7.17609467916e-05
6.77708623285e-05
6.39426130773e-05
6.02911388808e-05
5.68275664292e-05
5.35592305685e-05
5.04897435609e-05
4.76191562773e-05
4.49442404292e-05
4.24588953579e-05
4.01546562965e-05
3.80212617476e-05
3.60472301507e-05
3.42204001493e-05
3.25284008159e-05
3.09590332132e-05
2.95005585411e-05
2.81418984787e-05
2.68727595765e-05
2.56836961993e-05
2.45661266066e-05
2.35123153057e-05
2.25153326703e-05
2.15690005082e-05
2.06678301419e-05
1.98069577397e-05
1.89820801766e-05
1.81893935694e-05
1.742553579e-05
1.6687533648e-05
1.59727550112e-05
1.52788658391e-05
1.46037919272e-05
1.39456850408e-05
1.33028930673e-05
1.26739337907e-05
1.20574718977e-05
1.14522988491e-05
1.08573152809e-05
1.02715156468e-05
9.6939748604e-06
9.12383675626e-06
8.56030425744e-06
8.00263121553e-06
7.45011598866e-06
6.90209694558e-06
6.35795023931e-06
5.81709040229e-06
5.27897459272e-06
4.74311171983e-06
4.20907826123e-06
3.67654350441e-06
3.1453083892e-06
2.61536413886e-06
2.08697780368e-06
1.56079844771e-06
1.03787683479e-06
5.19009480263e-07
7.91417490873e-08
0.00025086059368
0.000248869299291
0.000241047586503
0.000231834393768
0.000223535150919
0.000216487575274
0.00021053491765
0.00020547198516
0.000201130482361
0.000197380722663
0.000194121400922
0.000191271222251
0.000188763521699
0.00018654289728
0.000184562983785
0.000182784851356
0.000181175763047
0.000179708161858
0.000178358823637
0.000177108141759
0.000175939522038
0.000174838871705
0.000173794168791
0.000172795099902
0.000171832755688
0.000170899374582
0.000169988126591
0.000169092930041
0.000168208295732
0.000167329191527
0.000166450924158
0.000165569035906
0.000164679211578
0.000163777192587
0.000162858696378
0.000161919339169
0.000160954560304
0.000159959546842
0.000158929157303
0.000157857843912
0.000156739573167
0.000155567745219
0.0001543351135
0.000153033707271
0.000151654761481
0.000150188660656
0.00014862490641
0.000146952121836
0.000145158110059
0.000143229988309
0.00014115442195
0.000138917983525
0.000136507657997
0.000133911505192
0.000131119472658
0.00012812432776
0.000124922649614
0.000121515793947
0.000117910720746
0.00011412055808
0.000110164769782
0.000106068810754
0.000101863209496
9.75821233942e-05
9.3261547793e-05
8.89374613009e-05
8.46442258291e-05
8.04134539091e-05
7.62733654399e-05
7.22485485608e-05
6.83599640625e-05
6.46250265195e-05
6.10576610564e-05
5.76683080467e-05
5.44639053423e-05
5.14479067306e-05
4.8620395964e-05
4.5978334455e-05
4.35159479754e-05
4.12252252425e-05
3.90964790545e-05
3.71189135278e-05
3.52811478566e-05
3.35716624978e-05
3.19791514144e-05
3.04927791801e-05
2.910235207e-05
2.77984176205e-05
2.65723086106e-05
2.54161464127e-05
2.43228164226e-05
2.32859256614e-05
2.22997501568e-05
2.13591775819e-05
2.04596489331e-05
1.95971017337e-05
1.87679162972e-05
1.79688659118e-05
1.71970713367e-05
1.64499596893e-05
1.57252276018e-05
1.50208084026e-05
1.43348430112e-05
1.3665654206e-05
1.30117239188e-05
1.23716732217e-05
1.17442446948e-05
1.11282868893e-05
1.05227406358e-05
9.92662698056e-06
9.33903657265e-06
8.75912036178e-06
8.1860815174e-06
7.61916852649e-06
7.05766949638e-06
6.50090776942e-06
5.94823907939e-06
5.39905065472e-06
4.85276296006e-06
4.30883521147e-06
3.7667764775e-06
3.22616496875e-06
2.68667812285e-06
2.14813090619e-06
1.61049187927e-06
1.07373681198e-06
5.37109385484e-07
7.94082846453e-08
0.000232541572724
0.000233406826552
0.000229337239193
0.000223179951153
0.000217066449932
0.000211618348541
0.000206885988285
0.000202774272152
0.000199176412293
0.000196003749972
0.000193186775183
0.000190670573565
0.000188410630302
0.000186369932717
0.000184517121468
0.000182825309419
0.000181271288455
0.000179834954934
0.000178498860559
0.000177247840209
0.000176068692334
0.000174949899531
0.000173881382626
0.000172854283988
0.000171860776837
0.00017089389763
0.000169947398797
0.000169015619166
0.000168093370505
0.000167175834544
0.000166258471106
0.000165336936435
0.00016440700772
0.000163464512047
0.000162505258782
0.000161524973914
0.000160519235072
0.000159483406037
0.000158412569789
0.000157301459318
0.000156144385765
0.00015493516391
0.000153667035706
0.000152332593576
0.000150923706677
0.000149431455396
0.000147846082296
0.000146156971471
0.000144352672985
0.000142420994251
0.000140349185014
0.000138124245394
0.000135733384765
0.000133164650431
0.000130407727257
0.000127454882964
0.000124302002421
0.000120949623143
0.000117403857338
0.000113677063699
0.000109788116015
0.000105762118781
0.000101629471329
9.74243070489e-05
9.31825137797e-05
8.89396848577e-05
8.472940734e-05
8.0582148243e-05
7.65247373721e-05
7.2580308808e-05
6.87684776932e-05
6.5105536986e-05
6.16045591729e-05
5.82753864739e-05
5.51245630002e-05
5.21552933514e-05
4.93675076925e-05
4.67580830501e-05
4.43212275247e-05
4.2048993145e-05
3.99318565814e-05
3.79593005063e-05
3.61203394302e-05
3.44039545142e-05
3.27994236494e-05
3.12965502711e-05
2.98858048107e-05
2.85583970069e-05
2.73062973113e-05
2.61222232886e-05
2.49996036801e-05
2.39325295926e-05
2.29156995037e-05
2.1944362597e-05
2.10142633102e-05
2.01215888259e-05
1.92629204346e-05
1.84351891748e-05
1.76356358082e-05
1.68617749898e-05
1.61113633621e-05
1.53823712514e-05
1.46729576139e-05
1.39814478847e-05
1.33063143939e-05
1.26461590403e-05
1.19996979348e-05
1.13657477584e-05
1.07432136037e-05
1.0131078097e-05
9.52839162354e-06
8.93426350538e-06
8.34785400749e-06
7.76836707948e-06
7.19504378117e-06
6.62715639864e-06
6.06400334533e-06
5.5049050811e-06
4.94920148709e-06
4.39625140568e-06
3.84543528178e-06
3.29616154291e-06
2.74787484417e-06
2.20005428979e-06
1.65215733807e-06
1.10338060128e-06
5.51977640398e-07
7.9954138859e-08
0.00021968689182
0.000221774811285
0.000219945770432
0.000215902743227
0.000211394963891
0.000207138705722
0.000203322980025
0.000199941964898
0.000196938153039
0.000194251018836
0.000191829480318
0.000189632704415
0.000187628054671
0.00018578892149
0.000184093075774
0.000182521546834
0.000181057882939
0.00017968765962
0.000178398139265
0.000177178020758
0.000176017242884
0.000174906820939
0.000173838705319
0.000172805656013
0.000171801129694
0.000170819177441
0.000169854351811
0.000168901622119
0.000167956298505
0.000167013958772
0.00016607038178
0.000165121487454
0.000164163279011
0.000163191787234
0.000162203016212
0.000161192889502
0.000160157195744
0.00015909153274
0.000157991249085
0.000156851382488
0.000155666594089
0.000154431098327
0.000153138588382
0.000151782157999
0.000150354221712
0.000148846437427
0.000147249638144
0.000145553783659
0.000143747948415
0.000141820368214
0.000139758575359
0.000137549657235
0.000135180674326
0.000132639266607
0.000129914458915
0.000126997646425
0.000123883705035
0.000120572135716
0.000117068121427
0.000113383347393
0.00010953640633
0.000105552592909
0.000101462931827
9.7302433047e-05
9.31078135109e-05
8.89151361928e-05
8.47579053389e-05
8.06659512881e-05
7.66650700658e-05
7.27771988905e-05
6.90208122045e-05
6.54112580769e-05
6.19609054909e-05
5.86791051944e-05
5.55720514484e-05
5.26426637791e-05
4.98905957119e-05
4.73124347006e-05
4.49021002885e-05
4.26513948067e-05
4.05506287496e-05
3.85892379963e-05
3.6756327439e-05
3.50411037175e-05
3.34331871264e-05
3.19228125006e-05
3.05009393043e-05
2.91592939868e-05
2.78903657888e-05
2.66873731736e-05
2.5544213653e-05
2.44554058681e-05
2.34160297132e-05
2.24216680415e-05
2.14683519487e-05
2.05525106057e-05
1.96709259745e-05
1.8820692354e-05
1.79991804853e-05
1.72040058396e-05
1.6433000668e-05
1.56841893878e-05
1.4955766903e-05
1.42460794814e-05
1.3553607851e-05
1.28769522062e-05
1.22148188563e-05
1.15660082697e-05
1.09294043023e-05
1.03039644163e-05
9.68871072036e-06
9.08272167917e-06
8.48512436054e-06
7.89508711059e-06
7.31181257527e-06
6.73453102679e-06
6.16249401072e-06
5.5949684027e-06
5.03123103617e-06
4.47056405154e-06
3.91225077279e-06
3.35557052675e-06
2.7997865141e-06
2.24410906839e-06
1.68758836628e-06
1.12883847632e-06
5.65459708276e-07
8.15941381771e-08
0.000210249689142
0.000212797994913
0.000212315061437
0.000209753657637
0.000206461730008
0.000203133268671
0.00020003311971
0.000197223229749
0.000194689047161
0.000192394862059
0.000190304212372
0.000188385786899
0.000186614055403
0.000184968340098
0.000183431671886
0.000181989835457
0.000180630667136
0.000179343564937
0.000178119151904
0.000176949042322
0.000175825674244
0.000174742183881
0.000173692306315
0.00017267029299
0.00017167084025
0.000170689025537
0.000169720249226
0.000168760180799
0.000167804710178
0.000166849897815
0.000165891928147
0.000164927068031
0.000163951624204
0.000162961901214
0.000161954159229
0.000160924570989
0.000159869177109
0.000158783838854
0.000157664187477
0.000156505569149
0.000155302984512
0.000154051021957
0.000152743784001
0.000151374806615
0.000149936972352
0.000148422419792
0.000146822454583
0.000145127471556
0.000143326903465
0.000141409219912
0.000139362009288
0.000137172185341
0.000134826364495
0.000132311455341
0.000129615482866
0.000126728636103
0.000123644484576
0.000120361267226
0.000116883124284
0.00011322111083
0.000109393785666
0.000105427119723
0.000101353482671
9.72096422533e-05
9.30340550644e-05
8.88640489084e-05
8.47336316134e-05
8.06723652606e-05
7.6705220978e-05
7.28530704395e-05
6.91333649477e-05
6.55606387121e-05
6.21466962062e-05
5.89005186589e-05
5.58280246634e-05
5.2931849599e-05
5.02112852474e-05
4.76624615388e-05
4.52787761424e-05
4.30515089367e-05
4.09705189577e-05
3.90249193771e-05
3.72036530028e-05
3.54959294519e-05
3.38915198561e-05
3.23809276283e-05
3.09554637473e-05
2.96072556333e-05
2.83292142748e-05
2.71149781827e-05
2.59588469592e-05
2.48557126123e-05
2.38009933683e-05
2.27905724661e-05
2.18207429805e-05
2.08881588726e-05
1.99897919952e-05
1.91228945493e-05
1.82849663972e-05
1.74737266306e-05
1.6687088819e-05
1.59231394225e-05
1.51801189038e-05
1.44564051379e-05
1.3750498766e-05
1.30610101907e-05
1.23866479479e-05
1.17262082252e-05
1.10785653251e-05
1.04426628954e-05
9.81750576491e-06
9.2021522433e-06
8.5957067542e-06
7.99731268659e-06
7.40614536356e-06
6.82140504293e-06
6.24230987299e-06
5.66808871229e-06
5.09797362844e-06
4.53119158473e-06
3.96695397784e-06
3.40444055672e-06
2.84276920477e-06
2.28093202722e-06
1.71765739842e-06
1.15113141423e-06
5.78522501594e-07
8.47982648054e-08
0.000203062446704
0.000205718325103
0.000206043390251
0.000204524560221
0.00020216428673
0.000199577358459
0.00019705603476
0.000194707331466
0.000192551794994
0.000190576271959
0.000188757919976
0.000187073743809
0.000185503668657
0.00018403101506
0.000182642081939
0.000181325531975
0.00018007182857
0.000178872790361
0.000177721260921
0.000176610870901
0.000175535868005
0.00017449099428
0.000173471395446
0.000172472551499
0.00017149022129
0.00017052039628
0.000169559260331
0.000168603153806
0.000167648541008
0.000166691976357
0.000165730071623
0.000164759467757
0.000163776804082
0.000162778687043
0.000161761657867
0.000160722158518
0.00015965649522
0.000158560798726
0.000157430980342
0.000156262682626
0.000155051223484
0.000153791532344
0.000152478077057
0.000151104780441
0.000149664926014
0.000148151053857
0.00014655485006
0.00014486703755
0.000143077282768
0.000141174142282
0.000139145085568
0.000136976643079
0.00013465473806
0.000132165259372
0.000129494913455
0.00012663235367
0.000123569531956
0.000120303168096
0.000116836197882
0.000113179030498
0.000109350383173
0.000105377362034
0.000101294419653
9.71410187614e-05
9.29583216084e-05
8.87857243481e-05
8.46582624408e-05
8.06054785171e-05
7.66515894447e-05
7.28164146329e-05
6.9116422888e-05
6.55654317086e-05
6.21748198975e-05
5.89533416603e-05
5.59067429391e-05
5.30374034682e-05
5.03441891503e-05
4.78226182946e-05
4.54653436372e-05
4.32628617409e-05
4.12043127088e-05
3.92782365033e-05
3.74731933914e-05
3.57782093446e-05
3.41830512841e-05
3.26783627274e-05
3.12556988652e-05
2.99074973624e-05
2.86270133962e-05
2.74082388068e-05
2.62458178945e-05
2.51349669675e-05
2.40714011323e-05
2.30512695917e-05
2.20710994658e-05
2.11277475107e-05
2.02183588476e-05
1.93403317492e-05
1.84912875776e-05
1.76690450596e-05
1.68715981885e-05
1.60970971482e-05
1.53438317492e-05
1.4610216948e-05
1.38947800898e-05
1.31961495743e-05
1.25130446886e-05
1.18442663887e-05
1.11886888442e-05
1.05452515789e-05
9.9129520616e-06
9.29083861186e-06
8.67800349514e-06
8.07357608517e-06
7.47671596793e-06
6.88660584528e-06
6.3024440505e-06
5.72343637847e-06
5.14878668511e-06
4.57768516121e-06
4.00929200278e-06
3.44271172132e-06
2.8769483764e-06
2.31082293937e-06
1.74282053604e-06
1.17082574049e-06
5.91729154454e-07
8.98771806393e-08
0.000197426993907
0.000200031701935
0.000200837989194
0.000200053554261
0.000198409431972
0.000196422405733
0.000194380298791
0.000192415103114
0.000190573368052
0.000188861267451
0.000187268669436
0.000185780574659
0.000184381971038
0.000183059554115
0.000181802075937
0.000180600163092
0.00017944597988
0.000178332890539
0.000177255173375
0.000176207796511
0.000175186248625
0.000174186413466
0.000173204477175
0.000172236859263
0.000171280160173
0.000170331120256
0.000169386586435
0.00016844348495
0.000167498796199
0.000166549530324
0.000165592703251
0.000164625316641
0.000163644335269
0.000162646663503
0.000161629120314
0.000160588412165
0.000159521103081
0.000158423581027
0.000157292019554
0.000156122333443
0.000154910126803
0.00015365063183
0.000152338636181
0.000150968396849
0.000149533538689
0.000148026936705
0.000146440583389
0.000144765446633
0.00014299133096
0.000141106766002
0.000139098961608
0.000136953887019
0.000134656547382
0.000132191535119
0.000129543915023
0.000126700454029
0.000123651138684
0.000120390862196
0.000116921131408
0.000113251623906
0.000109401349383
0.000105398995691
0.000101281899336
9.70932845981e-05
9.28781219535e-05
8.86787495009e-05
8.45317204132e-05
8.04666884524e-05
7.65070412011e-05
7.26714397677e-05
6.89753427941e-05
6.54319289009e-05
6.20523049246e-05
5.88451722427e-05
5.58162405172e-05
5.29676862126e-05
5.02978939904e-05
4.78016110334e-05
4.5470508953e-05
4.32940279165e-05
4.1260317252e-05
3.93570996901e-05
3.75723489694e-05
3.58947440685e-05
3.43139189611e-05
3.28205549352e-05
3.14063678749e-05
3.00640352157e-05
2.87870950655e-05
2.75698383032e-05
2.64072054314e-05
2.52946938273e-05
2.42282772951e-05
2.32043377677e-05
2.22196080198e-05
2.12711238962e-05
2.0356184534e-05
1.94723191834e-05
1.86172594264e-05
1.77889157819e-05
1.69853578705e-05
1.62047974631e-05
1.54455738661e-05
1.47061412012e-05
1.39850572191e-05
1.32809733532e-05
1.259262577e-05
1.1918827214e-05
1.1258459474e-05
1.06104663199e-05
9.97384677498e-06
9.3476485981e-06
8.7309618492e-06
8.1229124061e-06
7.52265527525e-06
6.92936749069e-06
6.34224029595e-06
5.76047011227e-06
5.18324742457e-06
4.60974200373e-06
4.03908152766e-06
3.47031815424e-06
2.90237320231e-06
2.33394327512e-06
1.76334338987e-06
1.18826200597e-06
6.0542822657e-07
9.70391506734e-08
0.000192907415583
0.000195394411456
0.000196481755324
0.000196214561763
0.000195120751091
0.000193620930762
0.000191980445665
0.000190340747642
0.000188765552354
0.000187276361912
0.000185874295847
0.000184551948117
0.00018329926658
0.000182106199431
0.000180963713205
0.000179864045368
0.000178800630483
0.00017776791219
0.000176761137057
0.000175776169151
0.000174809337103
0.000173857313654
0.000172917023104
0.000171985571026
0.000171060190906
0.000170138203232
0.000169216983441
0.000168293937905
0.000167366481117
0.00016643201535
0.000165487911996
0.000164531495637
0.000163560026431
0.00016257068162
0.000161560535529
0.00016052653742
0.00015946548644
0.000158374002747
0.000157248493702
0.000156085113664
0.000154879715603
0.000153627792248
0.000152324404049
0.000150964090735
0.000149540763133
0.000148047572247
0.000146476754311
0.000144819454345
0.000143065538275
0.00014120341635
0.00013921991964
0.000137100295857
0.000134828415291
0.000132387290386
0.000129759995986
0.000126931018963
0.000123887976035
0.000120623559282
0.000117137544161
0.000113438704479
0.000109546403071
0.000105491346373
0.000101314661174
9.70646131182e-05
9.27913153996e-05
8.85410579593e-05
8.43523855406e-05
8.0255057301e-05
7.627138636e-05
7.24186409486e-05
6.87111820513e-05
6.51616261448e-05
6.17809963456e-05
5.85781627651e-05
5.55589769154e-05
5.27254873997e-05
5.00755403676e-05
4.76029280863e-05
4.52980684408e-05
4.31490365817e-05
4.11426946034e-05
3.92656944145e-05
3.75052234525e-05
3.58494641586e-05
3.42878075108e-05
3.2810890041e-05
3.14105233316e-05
3.00795701403e-05
2.8811803386e-05
2.76017690244e-05
2.64446630853e-05
2.53362264646e-05
2.42726573925e-05
2.32505397647e-05
2.22667849308e-05
2.13185845148e-05
2.04033721051e-05
1.9518791989e-05
1.8662673452e-05
1.78330094614e-05
1.70279388068e-05
1.62457309699e-05
1.54847731562e-05
1.47435590415e-05
1.40206788808e-05
1.33148106997e-05
1.26247123415e-05
1.19492141836e-05
1.12872123682e-05
1.06376624098e-05
9.99957305669e-06
9.37200028549e-06
8.75404130329e-06
8.14482840892e-06
7.5435225244e-06
6.94930612727e-06
6.36137517132e-06
5.7789293281e-06
5.20115942668e-06
4.62723016755e-06
4.05625479196e-06
3.48725605007e-06
2.91910416911e-06
2.3504177137e-06
1.77940928089e-06
1.20366111836e-06
6.19836114641e-07
1.06412233788e-07
0.000189220369946
0.000191566543801
0.000192811244542
0.00019290785045
0.000192236283374
0.00019113207728
0.000189829830077
0.000188469701166
0.000187125007657
0.000185828428714
0.000184590433006
0.000183410495655
0.000182283332219
0.000181202114407
0.000180159993891
0.000179150730992
0.000178168876397
0.000177209746737
0.000176269318157
0.000175344098691
0.000174431006922
0.000173527267415
0.000172630325191
0.000171737777812
0.000170847322303
0.000169956713885
0.000169063733589
0.000168166164894
0.00016726177163
0.000166348277822
0.000165423352291
0.000164484594218
0.000163529518179
0.000162555538518
0.000161559952424
0.000160539921029
0.000159492447736
0.000158414352841
0.000157302243206
0.000156152475446
0.000154961110546
0.000153723857218
0.000152436000587
0.000151092311904
0.000149686934326
0.000148213239465
0.000146663650314
0.000145029429314
0.000143300437677
0.000141464885974
0.000139509118778
0.000137417508248
0.000135172567836
0.000132755422906
0.000130146764259
0.000127328339308
0.000124284912316
0.000121006514815
0.000117490793836
0.000113745337439
0.00010978981894
0.0001056573777
0.000101393985258
9.7054549432e-05
9.2696018838e-05
8.8369863043e-05
8.41170848839e-05
7.99673658353e-05
7.59414855345e-05
7.20549410483e-05
6.83208601025e-05
6.47513965459e-05
6.1357737166e-05
5.81492088628e-05
5.51320353335e-05
5.23082353055e-05
4.96750448728e-05
4.72250710825e-05
4.49471421704e-05
4.28275984275e-05
4.08516730156e-05
3.90046691571e-05
3.72727824626e-05
3.56435560949e-05
3.41060412635e-05
3.26507624584e-05
3.12695765288e-05
2.99554898057e-05
2.87024724399e-05
2.75052900277e-05
2.63593602679e-05
2.52606354531e-05
2.4205508278e-05
2.31907372481e-05
2.22133878872e-05
2.12707863615e-05
2.03604827117e-05
1.94802214612e-05
1.86279178675e-05
1.78016384925e-05
1.69995850873e-05
1.62200810314e-05
1.5461559751e-05
1.47225546773e-05
1.40016904102e-05
1.32976748229e-05
1.26092919052e-05
1.19353951757e-05
1.12749015248e-05
1.06267853691e-05
9.99007300079e-06
9.36383702031e-06
8.74719072172e-06
8.13928227041e-06
7.53928845336e-06
6.94640767862e-06
6.35985172478e-06
5.77883544308e-06
5.20256311554e-06
4.63020934458e-06
4.06089101146e-06
3.49362477894e-06
2.92726173229e-06
2.36038751375e-06
1.79117462482e-06
1.21717765894e-06
6.35076625966e-07
1.18053554725e-07
0.000186174611037
0.000188376782628
0.000189701709129
0.000190053291563
0.000189705095594
0.000188921535166
0.000187904352743
0.00018678570863
0.00018564262249
0.000184515131865
0.000183420980959
0.000182365559993
0.000181347982632
0.000180364547342
0.000179410587732
0.000178481389524
0.000177572592207
0.000176680319942
0.000175801179401
0.000174932199354
0.000174070751029
0.000173214468374
0.00017236117656
0.000171508831467
0.000170655470117
0.000169799170805
0.000168938021242
0.000168070095005
0.000167193430107
0.000166306007632
0.000165405737997
0.000164490446736
0.000163557860611
0.000162605593337
0.000161631130275
0.000160631811397
0.000159604811726
0.000158547118286
0.000157455502276
0.000156326484829
0.000155156294046
0.000153940810279
0.000152675495575
0.000151355301939
0.000149974551789
0.000148526782802
0.00014700454921
0.000145399173606
0.000143700449977
0.000141896313102
0.000139972515859
0.000137912396812
0.000135696872165
0.000133304831247
0.000130714116181
0.000127903180542
0.000124853347415
0.000121551422062
0.000117992412791
0.000114182299125
0.000110140867928
0.000105904046015
0.000101523896306
9.70640400681e-05
9.25904927463e-05
8.8161459828e-05
8.38208609529e-05
7.95978679056e-05
7.5510987111e-05
7.15734052388e-05
6.77968533556e-05
6.41931771263e-05
6.07740629781e-05
5.75496699897e-05
5.45268865847e-05
5.17078191006e-05
4.90889899316e-05
4.66615140807e-05
4.44121961521e-05
4.2325179293e-05
4.0383657897e-05
3.85712700801e-05
3.68730002898e-05
3.52756118402e-05
3.37677295056e-05
3.23397110439e-05
3.09834203461e-05
2.96919762707e-05
2.84595176634e-05
2.72810019475e-05
2.61520411573e-05
2.50687725657e-05
2.40277584563e-05
2.3025909173e-05
2.20604241623e-05
2.1128746643e-05
2.02285284736e-05
1.9357602606e-05
1.85139611728e-05
1.769573777e-05
1.69011928752e-05
1.61287016283e-05