/*--------------------------------*- C++ -*----------------------------------*\
  =========                 |
  \\      /  F ield         | OpenFOAM: The Open Source CFD Toolbox
   \\    /   O peration     | Website:  https://openfoam.org
    \\  /    A nd           | Version:  7
     \\/     M anipulation  |
\*---------------------------------------------------------------------------*/
FoamFile
{
    version     2.0;
    format      ascii;
    class       surfaceScalarField;
    location    "3120";
    object      phi;
}
// * * * * * * * * * * * * * * * * * * * * * * * * * * * * * * * * * * * * * //

dimensions      [0 3 -1 0 0 0 0];

internalField   nonuniform List<scalar> 
16192
(
6.92946441475e-10
2.44553558525e-10
4.93611126332e-10
1.99335314572e-10
3.64877373916e-10
1.28733751884e-10
2.82271773313e-10
8.26056001182e-11
2.27600053526e-10
5.46717193171e-11
1.89922295665e-10
3.76777574176e-11
1.62899340661e-10
2.70229546041e-11
1.42821282895e-10
2.00780574163e-11
1.27455846659e-10
1.53654359387e-11
1.15411961123e-10
1.20438852883e-11
1.05790049763e-10
9.62191116102e-12
9.79870373414e-11
7.80301226622e-12
9.15849308239e-11
6.40210640626e-12
8.62852614604e-11
5.29966929714e-12
8.18692884623e-11
4.4159729792e-12
7.81730742539e-11
3.69621424182e-12
7.50713969352e-11
3.10167741057e-12
7.24670692133e-11
2.6043278804e-12
7.02836597719e-11
2.18340967538e-12
6.84604141566e-11
1.82324593555e-12
6.69486337105e-11
1.51178086393e-12
6.57090438499e-11
1.2395903892e-12
6.47098482623e-11
9.99196240473e-13
6.39252682365e-11
7.84580818442e-13
6.33344314785e-11
5.90837705778e-13
6.29205170248e-11
4.13915574504e-13
6.26700907645e-11
2.50427571299e-13
6.25725848675e-11
9.7507417913e-14
6.26198871804e-11
-4.73005633527e-14
6.28060152907e-11
-1.86126110543e-13
6.31268558411e-11
-3.2083828071e-13
6.35799551759e-11
-4.53096772362e-13
6.41643496737e-11
-5.84391622289e-13
6.48804256511e-11
-7.1607276555e-13
6.57298000246e-11
-8.49370805121e-13
6.67152135397e-11
-9.85409567467e-13
6.78404283037e-11
-1.12521041801e-12
6.91101208459e-11
-1.26968777701e-12
7.05297608573e-11
-1.41963481119e-12
7.21054643476e-11
-1.575697838e-12
7.38438081036e-11
-1.73833764135e-12
7.57515903751e-11
-1.90777568486e-12
7.78355207167e-11
-2.08392328227e-12
8.01018205123e-11
-2.2662922664e-12
8.25557153596e-11
-2.45388686244e-12
8.52008023133e-11
-2.64507853499e-12
8.80382799833e-11
-2.837468854e-12
9.10660391791e-11
-3.02775003011e-12
9.42776273113e-11
-3.21157868203e-12
9.76611220371e-11
-3.38348507041e-12
1.01197978207e-10
-3.53684640659e-12
1.0486194507e-10
-3.66395710185e-12
1.08618183446e-10
-3.75622874287e-12
1.12422738715e-10
-3.80454589971e-12
1.1622253691e-10
-3.7997892296e-12
1.19956060169e-10
-3.73351484041e-12
1.2355481831e-10
-3.59875040876e-12
1.26945662398e-10
-3.39083716972e-12
1.30053884843e-10
-3.1082164559e-12
1.32806925069e-10
-2.75303526049e-12
1.35138365245e-10
-2.33143630548e-12
1.36991785778e-10
-1.85341780654e-12
1.38323996751e-10
-1.33220941201e-12
1.39107210307e-10
-7.83213158516e-13
1.39329885367e-10
-2.22675795686e-13
1.38996226936e-10
3.33656608887e-13
1.38124584619e-10
8.71639475964e-13
1.36745173745e-10
1.3794070931e-12
1.34897565682e-10
1.84760342861e-12
1.32628307381e-10
2.26925289907e-12
1.29988866384e-10
2.63943491196e-12
1.27033928669e-10
2.95493103127e-12
1.23819961552e-10
3.21395991601e-12
1.20403913612e-10
3.41604029955e-12
1.16841948557e-10
3.5619570598e-12
1.13188172784e-10
3.65376750233e-12
1.09493386127e-10
3.69477819637e-12
1.05803936545e-10
3.6894410129e-12
1.02160778916e-10
3.64314903393e-12
9.85988242862e-11
3.56194608401e-12
9.51466283049e-11
3.45218755841e-12
9.18264203276e-11
3.32019974276e-12
8.86544319464e-11
3.17198039316e-12
8.56414546552e-11
3.01296960048e-12
8.27935442668e-11
2.84790303627e-12
8.01127925726e-11
2.68074471521e-12
7.75980997218e-11
2.51468626946e-12
7.5245898573e-11
2.3521949837e-12
7.30508003416e-11
2.1950924923e-12
7.10061465294e-11
2.04464850437e-12
6.91044640087e-11
1.9016776418e-12
6.73378282124e-11
1.7666313417e-12
6.56981440586e-11
1.63968011219e-12
6.41773564189e-11
1.52078399917e-12
6.27676022794e-11
1.40975088284e-12
6.14613160671e-11
1.30628332285e-12
6.02512982778e-11
1.21001524624e-12
5.91307560538e-11
1.12054000763e-12
5.80933227898e-11
1.03743135183e-12
5.71330624642e-11
9.60258696255e-13
5.62444631269e-11
8.88597968035e-13
5.54224229535e-11
8.2203904245e-13
5.4662231399e-11
7.60190639681e-13
5.39595473018e-11
7.02683377433e-13
5.33103752195e-11
6.49171536455e-13
5.27110408373e-11
5.99333990597e-13
5.21581659116e-11
5.52874669173e-13
5.16486429053e-11
5.09522866695e-13
5.11796091814e-11
4.6903368413e-13
5.0748420342e-11
4.31188883583e-13
5.03526219918e-11
3.95798463398e-13
4.99899188394e-11
3.62703320873e-13
4.96581395742e-11
3.31779476331e-13
4.93551953137e-11
3.02944502415e-13
4.90790285027e-11
2.76167073189e-13
4.88275478031e-11
2.51480971368e-13
4.85985424974e-11
2.29005577784e-13
4.83895667695e-11
2.08975990015e-13
4.8197779194e-11
1.91787818329e-13
4.80197144347e-11
1.78064971815e-13
4.78509501962e-11
1.68764410903e-13
4.76856088997e-11
1.65341417102e-13
4.75155953146e-11
1.70013645479e-13
4.7329418339e-11
1.8617696891e-13
4.71104160048e-11
2.1900226489e-13
4.68344956883e-11
2.75920204247e-13
4.64694261931e-11
3.65069432474e-13
4.68339905448e-13
9.53433191463e-10
2.28620366593e-10
8.59673290169e-10
2.9309521483e-10
7.45083159971e-10
2.43323881078e-10
6.41801921027e-10
1.85886838084e-10
5.56459758141e-10
1.40013881259e-10
4.87860595949e-10
1.06276918726e-10
4.3298909487e-10
8.18944548753e-11
3.88898422715e-10
6.41687288464e-11
3.53179697172e-10
5.10841608359e-11
3.23979711019e-10
4.12438708709e-11
2.99901168327e-10
3.3700453355e-11
2.79893067407e-10
2.78111127594e-11
2.63160152826e-10
2.31350206335e-11
2.49094755284e-10
1.93650665652e-11
2.37227294829e-10
1.62834332478e-11
2.27190759815e-10
1.37327491694e-11
2.18695214274e-10
1.15972229807e-11
2.11509387239e-10
9.7901550744e-12
2.05447249098e-10
8.24554812655e-12
2.00358114492e-10
6.91238102288e-12
1.96119259278e-10
5.75063675396e-12
1.92630348148e-10
4.72850241625e-12
1.8980918116e-10
3.82036437231e-12
1.87588412373e-10
3.00535102605e-12
1.85912993444e-10
2.26625836325e-12
1.84738164123e-10
1.58874696309e-12
1.84027859775e-10
9.60734360436e-13
1.83753439959e-10
3.71930084783e-13
1.83892666092e-10
-1.86523399306e-13
1.84428872942e-10
-7.22329181502e-13
1.85350290888e-10
-1.24225192602e-12
1.86649485965e-10
-1.7522869899e-12
1.88322889513e-10
-2.25778971357e-12
1.9037039288e-10
-2.76357004214e-12
1.92794985151e-10
-3.27395631475e-12
1.95602412894e-10
-3.79282984347e-12
1.98800840784e-10
-4.32363010472e-12
2.02400490804e-10
-4.86932882908e-12
2.06413235697e-10
-5.43236994828e-12
2.10852119686e-10
-6.01457126527e-12
2.15730776413e-10
-6.61698299234e-12
2.21062711095e-10
-7.2396981751e-12
2.26860411671e-10
-7.88161086385e-12
2.33134253364e-10
-8.54012018906e-12
2.39891163903e-10
-9.21078289775e-12
2.47133024614e-10
-9.88692407319e-12
2.54854797849e-10
-1.05592263319e-11
2.63042396029e-10
-1.12153319777e-11
2.71670343847e-10
-1.18395099269e-11
2.80699333414e-10
-1.24124578819e-11
2.90073830604e-10
-1.29113268414e-11
2.99719954349e-10
-1.33100642927e-11
3.09543909764e-10
-1.3580168023e-11
3.19431297619e-10
-1.36919182684e-11
3.29247631478e-10
-1.36161084803e-11
3.38840355464e-10
-1.33262253223e-11
3.48042560169e-10
-1.28009429288e-11
3.5667843865e-10
-1.20267049818e-11
3.64570314546e-10
-1.10000833656e-11
3.71546826637e-10
-9.72954018837e-12
3.77451601411e-10
-8.23620584093e-12
3.82151541503e-10
-6.55335464598e-12
3.85543776697e-10
-4.72444335832e-12
3.87560433945e-10
-2.79987114232e-12
3.88170704985e-10
-8.32949487404e-13
3.87380162285e-10
1.1241948396e-12
3.85227761003e-10
3.02403460402e-12
3.81781302688e-10
4.82585771436e-12
3.77132208117e-10
6.4966889227e-12
3.71390305406e-10
8.01114530303e-12
3.64679056418e-10
9.35067251416e-12
3.57131344248e-10
1.05026308808e-11
3.48885730225e-10
1.14595608297e-11
3.40083001919e-10
1.22187548467e-11
3.3086286223e-10
1.27820824886e-11
3.21360708773e-10
1.31559063396e-11
3.11704569015e-10
1.3350903123e-11
3.02012344195e-10
1.338165093e-11
2.92389548209e-10
1.32659301822e-11
2.82927701946e-10
1.30237777044e-11
2.73703474098e-10
1.26764010744e-11
2.64778571022e-10
1.22450889021e-11
2.56200295942e-10
1.17502420656e-11
2.48002639279e-10
1.12106134413e-11
2.40207734175e-10
1.06427959654e-11
2.32827511937e-10
1.0060955476e-11
2.25865413366e-10
9.47677409531e-12
2.19318044203e-10
8.89955415435e-12
2.13176697895e-10
8.33642957351e-12
2.07428700855e-10
7.79263708283e-12
2.02058561361e-10
7.27180942977e-12
1.97048922179e-10
6.77626355992e-12
1.92381329442e-10
6.30726660396e-12
1.88036837448e-10
5.86527043961e-12
1.83996472066e-10
5.45011136977e-12
1.8024157581e-10
5.06117531014e-12
1.76754056214e-10
4.69753116139e-12
1.73516556882e-10
4.35803620831e-12
1.70512567842e-10
4.04141776909e-12
1.67726489138e-10
3.74633524524e-12
1.65143659015e-10
3.4714263648e-12
1.62750355761e-10
3.2153409573e-12
1.60533780315e-10
2.97676509419e-12
1.58482025037e-10
2.75443797467e-12
1.5658403265e-10
2.54716351486e-12
1.54829548198e-10
2.35381827109e-12
1.5320906585e-10
2.17335704882e-12
1.5171377155e-10
2.00481737069e-12
1.50335481735e-10
1.847323845e-12
1.49066577634e-10
1.70009344493e-12
1.47899933919e-10
1.56244272732e-12
1.46828839703e-10
1.43379815128e-12
1.45846908978e-10
1.31371085934e-12
1.44947976525e-10
1.2018776374e-12
1.44125974035e-10
1.09817024904e-12
1.4337477963e-10
1.00267604931e-12
1.42688032135e-10
9.15753715898e-13
1.42058899524e-10
8.38109194696e-13
1.41479789436e-10
7.70898435836e-13
1.40941989956e-10
7.15864898336e-13
1.40435235038e-10
6.75519679818e-13
1.39947210666e-10
6.53366035835e-13
1.3946308062e-10
6.54143839412e-13
1.38965277907e-10
6.83979757551e-13
1.38434249218e-10
7.50031013257e-13
1.37851923557e-10
8.58245935479e-13
1.37213165372e-10
1.00382766619e-12
1.1366535083e-12
9.76226597986e-10
1.89893768076e-10
9.62931746053e-10
3.06390065636e-10
9.05897492672e-10
3.00358133366e-10
8.33280052174e-10
2.58504277552e-10
7.60077453726e-10
2.13216478716e-10
6.92709230584e-10
1.73645140929e-10
6.33255761401e-10
1.41347923179e-10
5.81830593295e-10
1.15593896134e-10
5.37758295549e-10
9.51564578183e-11
5.00123253947e-10
7.88789117625e-11
4.68008140829e-10
6.58155658105e-11
4.40585742982e-10
5.52335099935e-11
4.17144509758e-10
4.65762532966e-11
3.97086119927e-10
3.94234558925e-11
3.79912771264e-10
3.34567814738e-11
3.6521203219e-10
2.84334878844e-11
3.52642470017e-10
2.41667848858e-11
3.41921163702e-10
2.05114612287e-11
3.32813294034e-10
1.73534177574e-11
3.25123642065e-10
1.4602033098e-11
3.18689713028e-10
1.21845660615e-11
3.13376195078e-10
1.00420208242e-11
3.09070494106e-10
8.12606601269e-12
3.05679128496e-10
6.39671754396e-12
3.03124808873e-10
4.82057915859e-12
3.01344063483e-10
3.36949382045e-12
3.00285298758e-10
2.01950087888e-12
2.9990720758e-10
7.50023414742e-13
3.00177455461e-10
-4.56768738156e-13
3.01071587611e-10
-1.61645836316e-12
3.02572110879e-10
-2.74277176792e-12
3.04667713169e-10
-3.84788535761e-12
3.07352586104e-10
-4.94265819898e-12
3.10625820561e-10
-6.03679948587e-12
3.14490846542e-10
-7.13897668632e-12
3.1895488942e-10
-8.25686648465e-12
3.24028413858e-10
-9.39714765123e-12
3.29724525025e-10
-1.05654324206e-11
3.3605829418e-10
-1.17661308265e-11
3.43045972731e-10
-1.30022408179e-11
3.50704055619e-10
-1.4275056156e-11
3.59048152402e-10
-1.55837845034e-11
3.68091623147e-10
-1.69250704396e-11
3.77843938071e-10
-1.82924232491e-11
3.88308726007e-10
-1.96755583175e-11
3.99481490009e-10
-2.10596749629e-11
4.11346990764e-10
-2.24247134579e-11
4.23876332918e-10
-2.37446600844e-11
4.37023837486e-10
-2.49870001518e-11
4.507238457e-10
-2.61124515992e-11
4.64887673072e-10
-2.70751397259e-11
4.79401010398e-10
-2.78233873208e-11
4.94122138791e-10
-2.83012824987e-11
5.08881372084e-10
-2.84511382212e-11
5.23482142982e-10
-2.82168668126e-11
5.37704091739e-10
-2.75481624813e-11
5.51308386566e-10
-2.64052273006e-11
5.64045301712e-10
-2.4763610978e-11
5.7566381132e-10
-2.26185852661e-11
5.8592264578e-10
-1.99883684975e-11
5.94601941119e-10
-1.6915496666e-11
6.01514355333e-10
-1.34657660378e-11
6.06514419389e-10
-9.72450629836e-12
6.09505025141e-10
-5.79047747018e-12
6.104403617e-10
-1.76828826207e-12
6.09325219851e-10
2.23933291518e-12
6.06211214403e-10
6.13803482827e-12
6.01190912264e-10
9.84615330064e-12
5.94390954595e-10
1.32966388389e-11
5.8596507956e-10
1.64370115143e-11
5.76087594218e-10
1.92281480876e-11
5.64947469942e-10
2.1642744567e-11
5.52742972628e-10
2.3664046855e-11
5.39676634789e-10
2.52850808248e-11
5.25950413078e-10
2.65082918948e-11
5.11760995864e-10
2.73453109358e-11
4.97295365126e-10
2.78165210619e-11
4.82726820301e-10
2.7950182902e-11
4.68211706866e-10
2.77810308359e-11
4.53887054902e-10
2.73484170739e-11
4.39869241439e-10
2.66942022342e-11
4.26253676377e-10
2.58606420474e-11
4.13115406567e-10
2.48885004247e-11
4.00510457963e-10
2.38155511288e-11
3.88477699774e-10
2.26755438273e-11
3.7704101432e-10
2.14976312343e-11
3.66211581794e-10
2.03061975848e-11
3.5599012881e-10
1.91209987805e-11
3.46369033218e-10
1.7957517492e-11
3.37334218296e-10
1.6827445017e-11
3.28866803015e-10
1.57392183977e-11
3.20944500543e-10
1.46985603792e-11
3.13542774564e-10
1.37089875684e-11
3.06635773815e-10
1.27722667875e-11
3.00197070778e-10
1.18888105892e-11
2.94200232358e-10
1.10580104636e-11
2.88619249749e-10
1.02785110201e-11
2.83428852628e-10
9.54843106145e-12
2.78604729946e-10
8.8655386261e-12
2.74123676507e-10
8.22738726648e-12
2.6996368137e-10
7.63142045378e-12
2.66103971292e-10
7.07505031981e-12
2.62525019807e-10
6.55571616009e-12
2.59208530301e-10
6.07092732387e-12
2.56137399486e-10
5.61829439881e-12
2.53295666057e-10
5.19555196562e-12
2.50668447835e-10
4.80057569981e-12
2.48241869569e-10
4.43139620209e-12
2.46002982404e-10
4.08621168444e-12
2.43939675126e-10
3.76340147992e-12
2.42040576347e-10
3.46154232426e-12
2.40294945931e-10
3.17942942558e-12
2.38692553125e-10
2.9161045432e-12
2.37223538067e-10
2.67089357486e-12
2.35878252648e-10
2.44345653453e-12
2.34647076368e-10
2.23385316572e-12
2.33520203194e-10
2.0426276806e-12
2.32487397299e-10
1.87091581944e-12
2.31537720552e-10
1.72057583721e-12
2.30659245768e-10
1.59434024279e-12
2.29838792881e-10
1.49597302231e-12
2.29061771404e-10
1.43038785129e-12
2.28312302333e-10
1.40361313428e-12
2.2757396143e-10
1.42232079224e-12
2.26831775939e-10
1.4922166442e-12
2.26076551476e-10
1.61347057619e-12
2.25311832459e-10
1.76854688107e-12
1.89307625169e-12
9.71725135475e-10
1.55668632046e-10
9.86489733925e-10
2.91625465905e-10
9.67718278027e-10
3.19129588028e-10
9.27027769724e-10
2.99194784654e-10
8.76279468268e-10
2.63964778993e-10
8.23005804627e-10
2.26918803425e-10
7.71367874278e-10
1.92985852419e-10
7.23409228967e-10
1.63552540371e-10
6.79952362352e-10
1.38613323386e-10
6.41155052838e-10
1.17676220251e-10
6.06836034401e-10
1.0013458324e-10
5.76658790915e-10
8.54107524904e-11
5.50231922729e-10
7.30031205152e-11
5.27161743038e-10
6.24936346432e-11
5.07078084379e-10
5.35404392263e-11
4.89645402451e-10
4.58661689495e-11
4.74566038796e-10
3.92461477328e-11
4.61579486672e-10
3.34980126133e-11
4.50459782044e-10
2.84731217291e-11
4.41012166972e-10
2.40496476125e-11
4.3306962583e-10
2.01271067616e-11
4.26489591198e-10
1.66220551506e-11
4.2115095022e-10
1.3464706841e-11
4.1695139356e-10
1.05962742325e-11
4.13805103487e-10
7.96686946227e-12
4.11640755805e-10
5.53384195791e-12
4.1039980129e-10
3.26045610226e-12
4.10034989827e-10
1.11483586612e-12
4.10509101272e-10
-9.30878888858e-13
4.1179384748e-10
-2.90120293983e-12
4.13868915208e-10
-4.81783750121e-12
4.16721121114e-10
-6.70008887478e-12
4.20343649089e-10
-8.56518336238e-12
4.24735342165e-10
-1.04284892999e-11
4.29900021026e-10
-1.23036518072e-11
4.35845800151e-10
-1.42026413643e-11
4.42584370843e-10
-1.61357135701e-11
4.50130217948e-10
-1.81112742029e-11
4.58499734056e-10
-2.01356410437e-11
4.67710191771e-10
-2.22126920601e-11
4.77778531615e-10
-2.43433889369e-11
4.88719921034e-10
-2.65251662654e-11
5.00546039785e-10
-2.87511809463e-11
5.13263050177e-10
-3.10094248232e-11
5.26869218988e-10
-3.32817177629e-11
5.41352173851e-10
-3.55426199514e-11
5.56685803058e-10
-3.77583323354e-11
5.7282684685e-10
-3.98856931588e-11
5.89711282338e-10
-4.1871424621e-11
6.07250673711e-10
-4.36518317515e-11
6.2532874147e-10
-4.51531961777e-11
6.43798491821e-10
-4.6293126407e-11
6.62480326635e-10
-4.69831062283e-11
6.81161606647e-10
-4.71324074762e-11
6.99598143728e-10
-4.665339361e-11
7.17518031719e-10
-4.54680408122e-11
7.34628077038e-10
-4.35152637271e-11
7.50622858806e-10
-4.07583847584e-11
7.65196144303e-10
-3.71918638092e-11
7.78054030029e-10
-3.2846248418e-11
7.88928808534e-10
-2.77902706097e-11
7.97592244438e-10
-2.21291987018e-11
8.03866788784e-10
-1.59990487706e-11
8.07633393042e-10
-9.55708123658e-12
8.08835065375e-10
-2.96996146253e-12
8.07476059122e-10
3.59833699479e-12
8.03617368076e-10
9.99672247845e-12
7.97369741755e-10
1.60937751059e-11
7.88885545707e-10
2.17808293596e-11
7.78350541331e-10
2.69720094571e-11
7.65976203367e-10
3.1602478816e-11
7.51992739359e-10
3.56262006319e-11
7.36642674845e-10
3.90141028165e-11
7.20174766116e-10
4.17529804925e-11
7.02838065895e-10
4.38449826497e-11
6.84876123217e-10
4.53072438534e-11
6.66521468244e-10
4.61711660923e-11
6.47990652233e-10
4.64809888977e-11
6.29480147085e-10
4.62915260064e-11
6.11163355161e-10
4.56651991584e-11
5.93188863554e-10
4.46686842318e-11
5.75679937009e-10
4.33695592985e-11
5.58735118237e-10
4.18333102886e-11
5.42429718151e-10
4.01209427544e-11
5.26817939415e-10
3.8287314598e-11
5.11935379261e-10
3.63801839579e-11
4.97801688914e-10
3.44398810597e-11
4.8442321347e-10
3.24994679293e-11
4.71795486004e-10
3.05852392455e-11
4.59905495723e-10
2.87174301687e-11
4.48733687894e-10
2.69110216705e-11
4.38255682113e-10
2.5176562166e-11
4.28443715513e-10
2.35209507148e-11
4.19267830335e-10
2.19481490314e-11
4.10696832266e-10
2.04598062158e-11
4.02699048933e-10
1.90557918188e-11
3.95242917988e-10
1.77346404189e-11
3.88297432619e-10
1.64939152855e-11
3.81832469616e-10
1.53305008519e-11
3.75819022076e-10
1.42408343629e-11
3.70229355608e-10
1.32210867774e-11
3.6503710385e-10
1.22673022011e-11
3.60217316279e-10
1.13755040884e-11
3.55746468808e-10
1.05417753555e-11
3.51602445424e-10
9.76231851512e-12
3.47764497249e-10
9.0335010157e-12
3.44213183737e-10
8.35189020365e-12
3.40930299315e-10
7.71428170549e-12
3.37898787573e-10
7.11772457316e-12
3.35102644021e-10
6.55954622277e-12
3.32526807537e-10
6.03738002389e-12
3.3015703985e-10
5.54919833274e-12
3.27979791818e-10
5.09335378507e-12
3.25982054871e-10
4.66863170488e-12
3.24151196099e-10
4.27431645051e-12
3.22474776156e-10
3.9102742006e-12
3.20940351145e-10
3.5770537197e-12
3.19535263606e-10
3.27600431154e-12
3.18246435204e-10
3.0094051038e-12
3.17060186924e-10
2.78058929007e-12
3.15962135054e-10
2.59402555421e-12
3.14937248085e-10
2.45527537296e-12
3.13970206349e-10
2.37065532284e-12
3.13046281765e-10
2.34624574758e-12
3.12153014472e-10
2.38548424339e-12
3.11282746778e-10
2.48373854355e-12
3.10434475081e-10
2.61681880031e-12
2.72094968374e-12
9.63878839559e-10
1.29289791817e-10
9.87441562661e-10
2.68062741325e-10
9.89217273716e-10
3.17353875541e-10
9.71296574547e-10
3.17115482452e-10
9.40630793567e-10
2.94630558626e-10
9.03271744076e-10
2.64277851594e-10
8.63419610483e-10
2.32837984714e-10
8.23726488102e-10
2.0324566147e-10
7.8575265741e-10
1.76587152804e-10
7.50340056925e-10
1.53088819463e-10
7.17876864169e-10
1.3259777472e-10
6.88474346366e-10
1.14813269015e-10
6.62081470995e-10
9.9395994607e-11
6.38557641707e-10
8.60174626565e-11
6.17718022003e-10
7.43800576665e-11
5.99361211478e-10
6.42229782298e-11
5.83285697589e-10
5.53216604061e-11
5.6929924376e-10
4.74844652682e-11
5.57223882751e-10
4.05484816179e-11
5.46898215061e-10
3.43753142497e-11
5.38178088297e-10
2.88472325563e-11
5.30936334231e-10
2.38638083476e-11
5.25061985786e-10
1.9339054535e-11
5.2045923438e-10
1.51990250245e-11
5.17046285396e-10
1.13798179914e-11
5.14754204512e-10
7.8259225677e-12
5.13525806508e-10
4.48885403604e-12
5.1331461213e-10
1.32603040262e-12
5.14083882249e-10
-1.70014859658e-12
5.15805725247e-10
-4.62304524654e-12
5.18460273319e-10
-7.47238457736e-12
5.22034913978e-10
-1.02747282059e-11
5.26523558533e-10
-1.30538262314e-11
5.3192592821e-10
-1.58308569054e-11
5.38246835512e-10
-1.86245566293e-11
5.45495435453e-10
-2.14512383909e-11
5.5368441806e-10
-2.43246928072e-11
5.62829110161e-10
-2.7255962457e-11
5.72946450812e-10
-3.02529773531e-11
5.84053801192e-10
-3.33200375881e-11
5.9616754666e-10
-3.64571290336e-11
6.0930144669e-10
-3.96590603971e-11
6.23464688436e-10
-4.29144162681e-11
6.38659603235e-10
-4.62043326805e-11
6.54879014151e-10
-4.95011212348e-11
6.72103199153e-10
-5.27667970341e-11
6.90296481523e-10
-5.59516063493e-11
7.09403499542e-10
-5.89927024359e-11
7.2934526409e-10
-6.18131801045e-11
7.50015186567e-10
-6.43217449182e-11
7.7127534856e-10
-6.64133487059e-11
7.9295338182e-10
-6.79711501457e-11
8.14840418368e-10
-6.88701333101e-11
8.36690634814e-10
-6.89826146251e-11
8.58222926232e-10
-6.81856760234e-11
8.79125179139e-10
-6.63702851315e-11
8.99061455109e-10
-6.34515316514e-11
9.1768214574e-10
-5.93790680144e-11
9.34636827267e-10
-5.41465387551e-11
9.49589146818e-10
-4.77985623021e-11
9.62232641368e-10
-4.04337605132e-11
9.72305990494e-10
-3.22025442922e-11
9.79605967205e-10
-2.32990231223e-11
9.83996454906e-10
-1.39475677836e-11
9.85412458398e-10
-4.38596499951e-12
9.83858967532e-10
5.1518266591e-12
9.79405526468e-10
1.4450161259e-11
9.72178029262e-10
2.33212690366e-11
9.62349369793e-10
3.1609484656e-11
9.50130205428e-10
3.91911688425e-11
9.35760486971e-10
4.59721915685e-11
9.19501844347e-10
5.1884836904e-11
9.01630577154e-10
5.68853630892e-11
8.82430915992e-10
6.09526342516e-11
8.62188334012e-10
6.40875568363e-11
8.41182900545e-10
6.63126692364e-11
8.19682883462e-10
6.76711749056e-11
7.97938950305e-10
6.82249137047e-11
7.76179351444e-10
6.80511165409e-11
7.54606392719e-10
6.7238149676e-11
7.33394355256e-10
6.58807136954e-11
7.12688847582e-10
6.40750592617e-11
6.92607426688e-10
6.19147238259e-11
6.73241228174e-10
5.94871343251e-11
6.54657307103e-10
5.68712291838e-11
6.36901400945e-10
5.4136084123e-11
6.20000866771e-10
5.13404097555e-11
6.03967599968e-10
4.85327297842e-11
5.8880079832e-10
4.57520364789e-11
5.74489485684e-10
4.30287389215e-11
5.6101475007e-10
4.03857539234e-11
5.48351681219e-10
3.78396281626e-11
5.36471013673e-10
3.54016158958e-11
5.2534049457e-10
3.30786662337e-11
5.14926002846e-10
3.08742964787e-11
5.05192449695e-10
2.87893439205e-11
4.96104490555e-10
2.68225988904e-11
4.87627077444e-10
2.49713280778e-11
4.79725877999e-10
2.32317002964e-11
4.72367584609e-10
2.15991280374e-11
4.65520133918e-10
2.00685380081e-11
4.59152853902e-10
1.8634582978e-11
4.53236552935e-10
1.72918060084e-11
4.47743562624e-10
1.60347667817e-11
4.42647743973e-10
1.48581384128e-11
4.37924464422e-10
1.37567819204e-11
4.33550551568e-10
1.27258044907e-11
4.29504227952e-10
1.17606068116e-11
4.25765029977e-10
1.0856924072e-11
4.22313713022e-10
1.00108647152e-11
4.19132143916e-10
9.2189506629e-12
4.16203181302e-10
8.47816245918e-12
4.13510544007e-10
7.78599255764e-12
4.11038667454e-10
7.14050968604e-12
4.08772548566e-10
6.54043670644e-12
4.06697580708e-10
5.98524335677e-12
4.04799382447e-10
5.47525319887e-12
4.03063627764e-10
5.01176012294e-12
4.01475891654e-10
4.59714224352e-12
4.00021534838e-10
4.23494702892e-12
3.98685665698e-10
3.92989550651e-12
3.97453236875e-10
3.68770489574e-12
3.96309354981e-10
3.51453781645e-12
3.95239887333e-10
3.41571391576e-12
3.94232370114e-10
3.39300191556e-12
3.93276814012e-10
3.43929500767e-12
3.92364521506e-10
3.52911155302e-12
3.60524161258e-12
9.57461216657e-10
1.09328574409e-10
9.82226676174e-10
2.4329728016e-10
9.94356889418e-10
3.05223660722e-10
9.91122729476e-10
3.2034964088e-10
9.75683022767e-10
3.10070263849e-10
9.52150345842e-10
2.87810527064e-10
9.23985414508e-10
2.61002914617e-10
8.93728656249e-10
2.33502418308e-10
8.63123411556e-10
2.07192396074e-10
8.33308975882e-10
1.82903253704e-10
8.04992691061e-10
1.60914058092e-10
7.78583035502e-10
1.41222923106e-10
7.54286762954e-10
1.23692265672e-10
7.32177744139e-10
1.08126479976e-10
7.12244885477e-10
9.43129148263e-11
6.94425044607e-10
8.20428176004e-11
6.78625373229e-10
7.11213302952e-11
6.64738292559e-10
6.13715444698e-11
6.52651376935e-10
5.26353958061e-11
6.42253742542e-10
4.47729472527e-11
6.33440053463e-10
3.76609203034e-11
6.2611291542e-10
3.11909451335e-11
6.20184188402e-10
2.52677803869e-11
6.15575582946e-10
1.98076294237e-11
6.12218789258e-10
1.47366107503e-11
6.10055308244e-10
9.98940280279e-12
6.09036097868e-10
5.5080638036e-12
6.09121109514e-10
1.24101834278e-12
6.10278762022e-10
-2.85780130089e-12
6.12485378253e-10
-6.82966142983e-12
6.15724606276e-10
-1.0711612284e-11
6.19986825875e-10
-1.45369471933e-11
6.25268536317e-10
-1.83355357401e-11
6.31571716472e-10
-2.21340357793e-11
6.3890314272e-10
-2.59559812227e-11
6.47273645201e-10
-2.98217388171e-11
6.56697278379e-10
-3.37483235071e-11
6.67190377458e-10
-3.77490586107e-11
6.78770467818e-10
-4.18330643196e-11
6.91454990561e-10
-4.6004556451e-11
7.05259803696e-10
-5.02619377847e-11
7.20197416033e-10
-5.45966678366e-11
7.36274910393e-10
-5.89919052092e-11
7.53491515434e-10
-6.34209317819e-11
7.71835793173e-10
-6.78453925228e-11
7.91282424407e-10
-7.22134213223e-11
8.11788599804e-10
-7.64577743355e-11
8.33290063975e-10
-8.04941587733e-11
8.55696916783e-10
-8.4220024711e-11
8.78889352992e-10
-8.75141726255e-11
9.02713617573e-10
-9.02376045675e-11
9.26978563573e-10
-9.22360872996e-11
9.51453308085e-10
-9.33448689501e-11
9.75866565801e-10
-9.33958635505e-11
9.9990826782e-10
-9.22273694478e-11
1.0232340156e-09
-8.96960246282e-11
1.04547275736e-09
-8.56902655749e-11
1.06623780687e-09
-8.01441102409e-11
1.08514096494e-09
-7.30496902304e-11
1.101809066e-09
-6.44666576029e-11
1.11590176813e-09
-5.4526457818e-11
1.12712888976e-09
-4.34296621507e-11
1.1352652289e-09
-3.14353596209e-11
1.14016083971e-09
-1.88431771254e-11
1.14174539512e-09
-5.97052011185e-12
1.14002645333e-09
6.87076761223e-12
1.1350827441e-09
1.93938686098e-11
1.12705443835e-09
3.13495719691e-11
1.1161324465e-09
4.25314728491e-11
1.10254823242e-09
5.2775378515e-11
1.08656479658e-09
6.19556223247e-11
1.06846876753e-09
6.99808602745e-11
1.04856315681e-09
7.67909675887e-11
1.02716028805e-09
8.23554963247e-11
1.00457460243e-09
8.66732353956e-11
9.81115337995e-10
8.97719263257e-11
9.57079360074e-10
9.17071453033e-11
9.32744597429e-10
9.25596687537e-11
9.0836457107e-10
9.24311353354e-11
8.84164396274e-10
9.14383170369e-11
8.60338443186e-10
8.97066595667e-11
8.37049625839e-10
8.73638696889e-11
8.14430112648e-10
8.45342304599e-11
7.92583144959e-10
8.13340958764e-11
7.71585616415e-10
7.78687520514e-11
7.51491088041e-10
7.42306073135e-11
7.32332968643e-10
7.04985244828e-11
7.14127656784e-10
6.67380374942e-11
6.96877504997e-10
6.30021846413e-11
6.80573521535e-10
5.93327192751e-11
6.65197767332e-10
5.57615055218e-11
6.50725436267e-10
5.23119571101e-11
6.37126627228e-10
4.90004232824e-11
6.24367829001e-10
4.58374632472e-11
6.12413145783e-10
4.2828978895e-11
6.01225293874e-10
3.99771954099e-11
5.90766400238e-10
3.72814924586e-11
5.80998632075e-10
3.47390964921e-11
5.71884684101e-10
3.234564881e-11
5.63388147298e-10
3.00956656353e-11
5.55473779891e-10
2.7982906433e-11
5.48107698321e-10
2.60006657581e-11
5.41257503227e-10
2.41420024742e-11
5.34892352937e-10
2.23999185776e-11
5.28982994712e-10
2.07674982489e-11
5.23501762048e-10
1.92380162744e-11
5.18422544609e-10
1.7805023675e-11
5.13720735921e-10
1.64624172771e-11
5.09373162726e-10
1.52044990553e-11
5.05357998864e-10
1.40260303584e-11
5.01654665737e-10
1.29222855461e-11
4.98243720828e-10
1.18891090838e-11
4.95106735388e-10
1.09229796608e-11
4.92226162369e-10
1.00210843045e-11
4.89585196059e-10
9.1814045403e-12
4.87167625788e-10
8.40281506823e-12
4.84957687714e-10
7.68519262086e-12
4.82939921393e-10
7.02952769341e-12
4.81099041727e-10
6.43802305176e-12
4.79419842282e-10
5.91414750191e-12
4.77887152348e-10
5.46258635153e-12
4.76485875457e-10
5.08898257879e-12
4.75201133898e-10
4.79928005617e-12
4.74018508623e-10
4.59833977224e-12
4.72924228748e-10
4.487282279e-12
4.71904750235e-10
4.45877389401e-12
4.709442176e-10
4.48964443074e-12
4.53208673328e-12
9.52821183872e-10
9.40073896718e-11
9.76096906941e-10
2.20021555297e-10
9.93001515529e-10
2.88319050431e-10
9.98842515949e-10
3.14508638847e-10
9.94263653548e-10
3.1464912468e-10
9.81685269942e-10
3.00388909136e-10
9.63657017039e-10
2.79031166012e-10
9.42316226596e-10
2.54843207252e-10
9.19296551627e-10
2.3021206954e-10
8.95785247991e-10
2.06414555819e-10
8.72614222452e-10
1.84085082086e-10
8.50346276839e-10
1.63490867148e-10
8.29346189362e-10
1.44692351553e-10
8.09835992722e-10
1.27636674998e-10
7.91936714612e-10
1.12212191302e-10
7.75699352785e-10
9.82801777833e-11
7.61127588109e-10
8.56930933247e-11
7.48194279854e-10
7.43048510868e-11
7.36853338107e-10
6.39763359337e-11
7.27048187842e-10
5.45780959278e-11
7.18717736172e-10
4.59913704263e-11
7.11800520413e-10
3.81081594033e-11
7.06237537254e-10
3.08307621297e-11
7.01974120366e-10
2.40710449851e-11
6.98961134779e-10
1.77495951195e-11
6.97155682971e-10
1.17948535215e-11
6.96521463317e-10
6.14228251813e-12
6.97028881187e-10
7.33599705507e-13
6.98654982569e-10
-4.48390325389e-12
7.01383255516e-10
-9.55793472679e-12
7.05203340291e-10
-1.45316971609e-11
7.10110658685e-10
-1.94442654154e-11
7.16105971607e-10
-2.43308481895e-11
7.23194865201e-10
-2.92229285706e-11
7.31387158508e-10
-3.41482733706e-11
7.40696219504e-10
-3.91307982689e-11
7.51138170658e-10
-4.4190272704e-11
7.62730959886e-10
-4.93418454429e-11
7.75493267701e-10
-5.45953692748e-11
7.89443216592e-10
-5.99545019935e-11
8.04596844381e-10
-6.5415561715e-11
8.20966299944e-10
-7.09661190156e-11
8.38557717929e-10
-7.65833182709e-11
8.57368730072e-10
-8.22319384557e-11
8.77385576165e-10
-8.78622326034e-11
8.98579789986e-10
-9.34076286016e-11
9.20904457936e-10
-9.8782435236e-11