/*--------------------------------*- C++ -*----------------------------------*\
  =========                 |
  \\      /  F ield         | OpenFOAM: The Open Source CFD Toolbox
   \\    /   O peration     | Website:  https://openfoam.org
    \\  /    A nd           | Version:  7
     \\/     M anipulation  |
\*---------------------------------------------------------------------------*/
FoamFile
{
    version     2.0;
    format      ascii;
    class       volVectorField;
    location    "3120";
    object      U;
}
// * * * * * * * * * * * * * * * * * * * * * * * * * * * * * * * * * * * * * //

dimensions      [0 1 -1 0 0 0 0];

internalField   nonuniform List<vector> 
8192
(
(0.00104348572254 0.000156514277456 0)
(0.000759396843396 0.000127574601326 0)
(0.000549432640158 8.2389601206e-05 0)
(0.000414175454226 5.28675840757e-05 0)
(0.000326317969177 3.4989900363e-05 0)
(0.000267214303482 2.41137647473e-05 0)
(0.000225805847249 1.72946909466e-05 0)
(0.000195661199075 1.28499567464e-05 0)
(0.000172977362914 9.83387900076e-06 0)
(0.00015543539698 7.70808658453e-06 0)
(0.000141569286967 6.15802314305e-06 0)
(0.000130417335747 4.99392785038e-06 0)
(0.000121326059626 4.0973481e-06 0)
(0.000113836923062 3.39178835017e-06 0)
(0.000107618911951 2.82622270669e-06 0)
(0.000102427112138 2.36557711476e-06 0)
(9.8076461561e-05 1.98507354277e-06 0)
(9.44246183351e-05 1.66676984346e-06 0)
(9.13604665506e-05 1.39738219224e-06 0)
(8.87962073143e-05 1.16687739875e-06 0)
(8.6661790635e-05 9.67539752914e-07 0)
(8.49009136387e-05 7.93337849091e-07 0)
(8.34680909518e-05 6.39485593903e-07 0)
(8.23264745592e-05 5.02131723803e-07 0)
(8.14462078176e-05 3.78136131698e-07 0)
(8.08031670421e-05 2.64905967682e-07 0)
(8.03779889851e-05 1.60273645631e-07 0)
(8.01553124045e-05 6.24047474643e-08 0)
(8.01231821107e-05 -3.02723605457e-08 0)
(8.02725775815e-05 -1.19120710747e-07 0)
(8.05970375244e-05 -2.05336499654e-07 0)
(8.10923590509e-05 -2.89981934312e-07 0)
(8.17563551037e-05 -3.74010638265e-07 0)
(8.25886562079e-05 -4.58286569952e-07 0)
(8.35905444324e-05 -5.43597315278e-07 0)
(8.47648086812e-05 -6.30662123179e-07 0)
(8.61156107798e-05 -7.20134667527e-07 0)
(8.76483514557e-05 -8.12600177288e-07 0)
(8.936952429e-05 -9.08566279163e-07 0)
(9.12865441311e-05 -1.00844661632e-06 0)
(9.34075343688e-05 -1.11253609047e-06 0)
(9.57410550264e-05 -1.22097643831e-06 0)
(9.82957510987e-05 -1.33371090065e-06 0)
(0.000101079898387 -1.4504270505e-06 0)
(0.000104100822958 -1.57048759196e-06 0)
(0.000107364171311 -1.6928502624e-06 0)
(0.00011087301267 -1.81598006656e-06 0)
(0.000114626764264 -1.93776001927e-06 0)
(0.000118619946554 -2.0554103565e-06 0)
(0.000122840799583 -2.16543044506e-06 0)
(0.000127269824156 -2.26358170021e-06 0)
(0.000131878350897 -2.34493254519e-06 0)
(0.00013662728225 -2.40398639544e-06 0)
(0.000141466190183 -2.43490937582e-06 0)
(0.0001463329764 -2.43186510694e-06 0)
(0.00015115430213 -2.38944949786e-06 0)
(0.000155846962226 -2.30320026161e-06 0)
(0.000160320307653 -2.17013578862e-06 0)
(0.000164479710234 -1.98925853177e-06 0)
(0.000168230918344 -1.76194256671e-06 0)
(0.000171484985801 -1.49211923551e-06 0)
(0.000174163296655 -1.18618739619e-06 0)
(0.000176202100818 -8.52614023685e-07 0)
(0.000177555972517 -5.0125642145e-07 0)
(0.000178199741231 -1.42512509239e-07 0)
(0.000178128711874 2.13540229688e-07 0)
(0.000177357319395 5.57849264617e-07 0)
(0.000175916645353 8.82820539587e-07 0)
(0.000173851353234 1.18246619431e-06 0)
(0.00017121655876 1.4523218554e-06 0)
(0.00016807499121 1.68923834366e-06 0)
(0.000164494588834 1.89115586001e-06 0)
(0.000160546489741 2.05693434624e-06 0)
(0.000156303280105 2.18626579171e-06 0)
(0.000151837351788 2.27965251827e-06 0)
(0.000147219277658 2.33841120149e-06 0)
(0.000142516197703 2.36465804568e-06 0)
(0.00013779028651 2.36124224825e-06 0)
(0.000133097417895 2.33161538171e-06 0)
(0.000128486146049 2.27964549377e-06 0)
(0.000123997089658 2.20940003738e-06 0)
(0.000119662751125 2.12492783536e-06 0)
(0.000115507745455 2.03006745162e-06 0)
(0.000111549367425 1.92830054431e-06 0)
(0.00010779839931 1.82265794322e-06 0)
(0.000104260055577 1.71567661773e-06 0)
(0.000100934971068 1.60939921245e-06 0)
(9.78201589087e-05 1.50540478957e-06 0)
(9.49098873053e-05 1.40485919507e-06 0)
(9.21964459974e-05 1.30857504279e-06 0)
(8.96707907444e-05 1.21707369075e-06 0)
(8.73230670215e-05 1.13064405869e-06 0)
(8.51430222535e-05 1.0493952718e-06 0)
(8.31203203056e-05 9.73301759471e-07 0)
(8.12447735669e-05 9.02240565015e-07 0)
(7.95065077418e-05 8.36021326626e-07 0)
(7.78960731808e-05 7.74409757591e-07 0)
(7.64045147723e-05 7.17145604881e-07 0)
(7.50234104599e-05 6.63956065169e-07 0)
(7.37448865626e-05 6.14565565603e-07 0)
(7.25616163783e-05 5.68702699542e-07 0)
(7.14668070915e-05 5.26104987168e-07 0)
(7.04541787856e-05 4.86522009396e-07 0)
(6.95179383685e-05 4.49717361557e-07 0)
(6.86527504136e-05 4.15469783331e-07 0)
(6.78537062764e-05 3.83573753982e-07 0)
(6.71162923193e-05 3.5383978827e-07 0)
(6.64363576428e-05 3.26094634685e-07 0)
(6.58100813355e-05 3.00181557843e-07 0)
(6.5233938895e-05 2.75960885493e-07 0)
(6.47046670936e-05 2.53311016575e-07 0)
(6.4219226132e-05 2.32130125359e-07 0)
(6.37747573847e-05 2.12338864852e-07 0)
(6.33685343283e-05 1.93884481546e-07 0)
(6.29979032425e-05 1.76746926841e-07 0)
(6.26602088357e-05 1.60947821676e-07 0)
(6.23526977923e-05 1.46563569782e-07 0)
(6.20723899308e-05 1.33744633609e-07 0)
(6.18159014166e-05 1.22744203731e-07 0)
(6.15791959224e-05 1.13961581962e-07 0)
(6.13572253638e-05 1.08009222978e-07 0)
(6.11433978214e-05 1.05818506945e-07 0)
(6.09287706972e-05 1.08808733106e-07 0)
(6.07008087383e-05 1.19153260102e-07 0)
(6.044149398e-05 1.4016144953e-07 0)
(6.01247434836e-05 1.76588930718e-07 0)
(5.97145100041e-05 2.33644436783e-07 0)
(5.91811279868e-05 2.99737539487e-07 0)
(0.00121019724254 0.000302831312076 0)
(0.00116038814824 0.000315155538817 0)
(0.00102704412809 0.000238116885096 0)
(0.000887606451839 0.000171835160449 0)
(0.000766887474668 0.000124598784369 0)
(0.000668365026618 9.21309927318e-05 0)
(0.000589343802124 6.97071420668e-05 0)
(0.000526008011254 5.39179432082e-05 0)
(0.000474929996727 4.25277419358e-05 0)
(0.000433382021242 3.41041639419e-05 0)
(0.000399283762781 2.77263132902e-05 0)
(0.00037106831087 2.27930400164e-05 0)
(0.000347554060949 1.89037613054e-05 0)
(0.00032784314119 1.57854309519e-05 0)
(0.000311246112072 1.32476199853e-05 0)
(0.000297227554972 1.11545365832e-05 0)
(0.000285367023417 9.40729625039e-06 0)
(0.000275330944968 7.93246909107e-06 0)
(0.000266852247256 6.67453299323e-06 0)
(0.000259715432698 5.5908012534e-06 0)
(0.000253745519213 4.64794727545e-06 0)
(0.000248799748753 3.81957939549e-06 0)
(0.000244761298757 3.08451879218e-06 0)
(0.000241534459861 2.42555638048e-06 0)
(0.000239040899723 1.82854148418e-06 0)
(0.000237216740843 1.28170402406e-06 0)
(0.000236010255295 7.7514363631e-07 0)
(0.00023538003183 3.00440001725e-07 0)
(0.000235293507873 -1.49647336102e-07 0)
(0.000235725784982 -5.81411386908e-07 0)
(0.000236658664851 -1.00037773231e-06 0)
(0.000238079857186 -1.41144560785e-06 0)
(0.000239982320306 -1.81899605495e-06 0)
(0.000242363700731 -2.22697139692e-06 0)
(0.00024522584194 -2.63892935672e-06 0)
(0.000248574334749 -3.058073223e-06 0)
(0.000252418082354 -3.48725793455e-06 0)
(0.000256768852216 -3.9289706279e-06 0)
(0.000261640784961 -4.38528304606e-06 0)
(0.000267049827445 -4.8577722261e-06 0)
(0.000273013053504 -5.34740520556e-06 0)
(0.000279547832006 -5.85438327038e-06 0)
(0.00028667079857 -6.37794185352e-06 0)
(0.000294396585622 -6.91610397149e-06 0)
(0.000302736267051 -7.46538864652e-06 0)
(0.000311695480651 -8.02048166923e-06 0)
(0.000321272206376 -8.57388491895e-06 0)
(0.000331454204082 -9.11557248501e-06 0)
(0.00034221615352 -9.63269670971e-06 0)
(0.000353516593447 -1.01094034895e-05 0)
(0.000365294824972 -1.05268308787e-05 0)
(0.00037746802237 -1.08633736925e-05 0)
(0.000389928873032 -1.10952939302e-05 0)
(0.000402544132725 -1.11977370676e-05 0)
(0.000415154514622 -1.11461745343e-05 0)
(0.000427576311643 -1.09182337042e-05 0)
(0.000439605066005 -1.0495803736e-05 0)
(0.000451021439244 -9.86722697694e-06 0)
(0.000461599202045 -9.02931188576e-06 0)
(0.000471114970357 -7.98884828727e-06 0)
(0.000479358993951 -6.7632909737e-06 0)
(0.000486146011466 -5.38033436962e-06 0)
(0.000491325003648 -3.87625777301e-06 0)
(0.000494786694811 -2.29317395254e-06 0)
(0.000496467928915 -6.75600181177e-07 0)
(0.000496352555053 9.33024927032e-07 0)
(0.000494469070904 2.49323141119e-06 0)
(0.000490885800762 3.97136947678e-06 0)
(0.000485704646915 5.34034710484e-06 0)
(0.000479054408655 6.57945484934e-06 0)
(0.000471084391567 7.67366875272e-06 0)
(0.000461958656427 8.61283962375e-06 0)
(0.000451850927663 9.39105327722e-06 0)
(0.000440939988572 1.00062688936e-05 0)
(0.000429405353055 1.0460185311e-05 0)
(0.000417423085442 1.07581912588e-05 0)
(0.000405161777784 1.09092360444e-05 0)
(0.000392778824454 1.09254988435e-05 0)
(0.000380417211139 1.08218106983e-05 0)
(0.000368203040099 1.06148632246e-05 0)
(0.000356243952668 1.0322296725e-05 0)
(0.000344628508877 9.96178473271e-06 0)
(0.000333426474857 9.55022237361e-06 0)
(0.000322689878542 9.10309314673e-06 0)
(0.000312454639011 8.6340473611e-06 0)
(0.000302742557512 8.15468812238e-06 0)
(0.000293563472194 7.67453463345e-06 0)
(0.000284917412844 7.20111944835e-06 0)
(0.000276796634943 6.74017412211e-06 0)
(0.0002691874552 6.29586277581e-06 0)
(0.000262071847818 5.8710317258e-06 0)
(0.000255428789466 5.46745273704e-06 0)
(0.000249235361037 5.08604589834e-06 0)
(0.000243467626809 4.72707484082e-06 0)
(0.000238101318089 4.39031184167e-06 0)
(0.000233112350641 4.07517352511e-06 0)
(0.000228477204496 3.78082970088e-06 0)
(0.000224173192382 3.5062887782e-06 0)
(0.000220178639823 3.25046343739e-06 0)
(0.000216472996467 3.01222012256e-06 0)
(0.000213036894818 2.79041557301e-06 0)
(0.000209852169457 2.58392319984e-06 0)
(0.000206901847089 2.39165166968e-06 0)
(0.000204170115425 2.21255766534e-06 0)
(0.000201642276919 2.04565443284e-06 0)
(0.000199304691742 1.89001744748e-06 0)
(0.00019714471299 1.74478829951e-06 0)
(0.000195150615936 1.60917775193e-06 0)
(0.000193311522102 1.48246881864e-06 0)
(0.000191617317996 1.36402069025e-06 0)
(0.000190058567394 1.25327436206e-06 0)
(0.000188626415118 1.14976094218e-06 0)
(0.000187312479156 1.05311381483e-06 0)
(0.000186108726722 9.63086169481e-07 0)
(0.000185007328358 8.79575886229e-07 0)
(0.000184000482346 8.02660493232e-07 0)
(0.000183080199529 7.32645947957e-07 0)
(0.000182238036262 6.70134518215e-07 0)
(0.000181464760934 6.16119202666e-07 0)
(0.000180749938811 5.72115116897e-07 0)
(0.000180081423997 5.40341818061e-07 0)
(0.000179444765251 5.2397276988e-07 0)
(0.000178822586424 5.2746079033e-07 0)
(0.000178194149458 5.56900304935e-07 0)
(0.00017753569736 6.20181298014e-07 0)
(0.000176823150576 7.25866329425e-07 0)
(0.000176041656914 8.76094143143e-07 0)
(0.000175205131008 1.0271957848e-06 0)
(0.00122478502271 0.000267849046188 0)
(0.00124106134018 0.000383670579498 0)
(0.00119605071278 0.000347956489244 0)
(0.0011130736287 0.000284410314007 0)
(0.00101974880378 0.000226067430384 0)
(0.000929783477959 0.000179150118179 0)
(0.000848617594871 0.000142875121955 0)
(0.000777655267005 0.000115048079987 0)
(0.00071653688886 9.35939959387e-05 0)
(0.000664244191678 7.68785808854e-05 0)
(0.000619604092657 6.36902522659e-05 0)
(0.000581500085639 5.31485585619e-05 0)
(0.000548947361754 4.46152153153e-05 0)
(0.000521107602998 3.76246543729e-05 0)
(0.000497279290363 3.18337374219e-05 0)
(0.000476879874211 2.69863917144e-05 0)
(0.000459426881413 2.28889650345e-05 0)
(0.000444520725581 1.9393034434e-05 0)
(0.000431830052951 1.63833381657e-05 0)
(0.000421079639104 1.37692250374e-05 0)
(0.00041204054726 1.14785298019e-05 0)
(0.000404522181188 9.45313487386e-06 0)
(0.000398365881078 7.6457154464e-06 0)
(0.000393439758465 6.01732388481e-06 0)
(0.000389634519916 4.53557601397e-06 0)
(0.000386860078308 3.17327410147e-06 0)
(0.000385042791835 1.90735055316e-06 0)
(0.000384123204057 7.18050239696e-07 0)
(0.000384054184347 -4.11706967976e-07 0)
(0.000384799387566 -1.49682402858e-06 0)
(0.000386331967034 -2.55041516412e-06 0)
(0.000388633487391 -3.58411030241e-06 0)
(0.000391692991535 -4.60828666404e-06 0)
(0.000395506180266 -5.63223649793e-06 0)
(0.000400074666946 -6.66427712069e-06 0)
(0.000405405271015 -7.71180565e-06 0)
(0.000411509314098 -8.78129776381e-06 0)
(0.000418401880885 -9.87824719977e-06 0)
(0.000426101004291 -1.10070404959e-05 0)
(0.000434626730823 -1.21707597332e-05 0)
(0.000444000018144 -1.33709050549e-05 0)
(0.000454241413133 -1.46070289142e-05 0)
(0.000465369456351 -1.58762760342e-05 0)
(0.00047739875918 -1.71728278004e-05 0)
(0.00049033770501 -1.84872583777e-05 0)
(0.00050418573825 -1.98058233831e-05 0)
(0.000518930227694 -2.11097214654e-05 0)
(0.000534542927156 -2.23743949198e-05 0)
(0.000550976109058 -2.35689664504e-05 0)
(0.000568158517239 -2.46559420679e-05 0)
(0.000585991372014 -2.55913386031e-05 0)
(0.000604344757421 -2.63254090327e-05 0)
(0.000623054815481 -2.68041283339e-05 0)
(0.00064192224696 -2.69715561533e-05 0)
(0.000660712649642 -2.67731041874e-05 0)
(0.000679159190221 -2.61596081943e-05 0)
(0.000696967986116 -2.50919489468e-05 0)
(0.000713826360498 -2.35458022142e-05 0)
(0.00072941383234 -2.15159479243e-05 0)
(0.000743415332544 -1.9019461559e-05 0)
(0.000755535735615 -1.60970896045e-05 0)
(0.000765514429729 -1.28122372376e-05 0)
(0.000773138415822 -9.24732778027e-06 0)
(0.000778252444499 -5.497823112e-06 0)
(0.000780765047578 -1.66479215966e-06 0)
(0.000780649972193 2.15265776306e-06 0)
(0.000777943317923 5.86372443666e-06 0)
(0.000772737361067 9.3900870496e-06 0)
(0.00076517239479 1.26677297674e-05 0)
(0.00075542786186 1.56468203631e-05 0)
(0.000743713711218 1.82904451851e-05 0)
(0.000730262441063 2.05730402866e-05 0)
(0.000715321883245 2.24791089181e-05 0)
(0.000699148548747 2.40024548298e-05 0)
(0.000682001310635 2.51458396054e-05 0)
(0.000664135301723 2.59207790563e-05 0)
(0.000645796071033 2.63471514784e-05 0)
(0.000627214198673 2.64523736525e-05 0)
(0.000608600657387 2.62700550516e-05 0)
(0.000590143207532 2.58382046581e-05 0)
(0.000572004029659 2.51971861175e-05 0)
(0.000554318667402 2.43876678077e-05 0)
(0.000537196213084 2.34487951938e-05 0)
(0.000520720553299 2.24167453249e-05 0)
(0.000504952420952 2.13237374673e-05 0)
(0.00048993197702 2.01974954946e-05 0)
(0.000475681661513 1.90611018753e-05 0)
(0.000462209094786 1.79331538783e-05 0)
(0.000449509863698 1.68281261219e-05 0)
(0.000437570080969 1.57568525439e-05 0)
(0.000426368653639 1.47270578096e-05 0)
(0.000415879234277 1.3743887321e-05 0)
(0.000406071856069 1.28104026703e-05 0)
(0.000396914270963 1.19280238254e-05 0)
(0.000388373020539 1.10969100537e-05 0)
(0.000380414274007 1.03162788952e-05 0)
(0.000373004468549 9.58466699616e-06 0)
(0.000366110785521 8.90013905264e-06 0)
(0.000359701492847 8.26045209292e-06 0)
(0.00035374618013 7.6631824075e-06 0)
(0.000348215909042 7.10582196389e-06 0)
(0.000343083297704 6.58585041735e-06 0)
(0.000338322554304 6.10078800274e-06 0)
(0.000333909472069 5.64823379106e-06 0)
(0.000329821395064 5.22589306475e-06 0)
(0.000326037161948 4.8315969515e-06 0)
(0.000322537032891 4.46331695912e-06 0)
(0.000319302603139 4.11917668658e-06 0)
(0.000316316705262 3.79746273884e-06 0)
(0.000313563300819 3.49663675191e-06 0)
(0.000311027360943 3.21535043301e-06 0)
(0.000308694734258 2.95246564919e-06 0)
(0.000306551999395 2.70708185763e-06 0)
(0.000304586298363 2.47857357585e-06 0)
(0.000302785146058 2.26664114149e-06 0)
(0.00030113621057 2.07137869762e-06 0)
(0.00029962705892 1.89336409376e-06 0)
(0.000298244864316 1.73377600905e-06 0)
(0.000296976075425 1.59454353475e-06 0)
(0.000295806058445 1.47853129032e-06 0)
(0.000294718744735 1.38975532936e-06 0)
(0.000293696361142 1.33360248776e-06 0)
(0.000292719407191 1.31696446316e-06 0)
(0.000291767208808 1.34803235186e-06 0)
(0.000290819671916 1.43503850077e-06 0)
(0.000289861329546 1.58189856747e-06 0)
(0.000288888565719 1.77431971025e-06 0)
(0.000287915035075 1.93902704639e-06 0)
(0.0012219040867 0.000221159936078 0)
(0.00125325751642 0.000382729940187 0)
(0.00125069312765 0.000396472141692 0)
(0.00121263747056 0.000356927399812 0)
(0.00115411663232 0.000305396004934 0)
(0.00108754257465 0.000256360924387 0)
(0.0010203991545 0.000213973616383 0)
(0.000956657346077 0.000178653719363 0)
(0.000898151418444 0.000149612659971 0)
(0.000845508745721 0.000125795284488 0)
(0.000798714295833 0.000106208095392 0)
(0.000757436688203 9.00123279897e-05 0)
(0.000721210056733 7.65307992396e-05 0)
(0.000689531946091 6.52269379428e-05 0)
(0.000661913489546 5.56782212481e-05 0)
(0.000637903031571 4.75517803737e-05 0)
(0.000617095322398 4.05842768759e-05 0)
(0.0005991331363 3.45660632589e-05 0)
(0.000583705131978 2.93289852713e-05 0)
(0.00057054204737 2.47370756548e-05 0)
(0.000559412347393 2.06794706068e-05 0)
(0.000550117898898 1.70650086238e-05 0)
(0.000542489946508 1.38180946263e-05 0)
(0.00053638550002 1.08755147369e-05 0)
(0.00053168415811 8.18396711735e-06 0)
(0.000528285349947 5.69813489815e-06 0)
(0.000526105956541 3.37917246792e-06 0)
(0.000525078266315 1.19350993975e-06 0)
(0.000525148218304 -8.88094481289e-07 0)
(0.000526273887201 -2.89130323391e-06 0)
(0.00052842416812 -4.83878993225e-06 0)
(0.000531577623246 -6.75070350873e-06 0)
(0.00053572145293 -8.64501859927e-06 0)
(0.000540850554402 -1.05377848229e-05 0)
(0.000546966632443 -1.24432822358e-05 0)
(0.000554077325554 -1.43740850233e-05 0)
(0.000562195309436 -1.63410311817e-05 0)
(0.000571337336826 -1.8353092239e-05 0)
(0.000581523169283 -2.0417133997e-05 0)
(0.000592774352529 -2.25375570419e-05 0)
(0.000605112782967 -2.47158048595e-05 0)
(0.000618559009695 -2.69497284921e-05 0)
(0.000633130214924 -2.9232800887e-05 0)
(0.000648837817576 -3.15531827663e-05 0)
(0.000665684652266 -3.38926566915e-05 0)
(0.000683661691417 -3.62254687451e-05 0)
(0.000702744305222 -3.85171493077e-05 0)
(0.000722888095941 -4.07234260756e-05 0)
(0.00074402440268 -4.27893918546e-05 0)
(0.000766055651872 -4.46491413445e-05 0)
(0.000788850825716 -4.62261349783e-05 0)
(0.000812241429306 -4.74345687858e-05 0)
(0.000836018443812 -4.81820087853e-05 0)
(0.0008599308373 -4.83734692463e-05 0)
(0.00088368624024 -4.79169666704e-05 0)
(0.000906954352286 -4.67303701078e-05 0)
(0.000929373509605 -4.47491142577e-05 0)
(0.00095056059894 -4.19340772713e-05 0)
(0.00097012416199 -3.82786874082e-05 0)
(0.000987680111573 -3.38141548259e-05 0)
(0.00100286901668 -2.86116910564e-05 0)
(0.0010153734739 -2.27807774333e-05 0)
(0.00102493378126 -1.64630752441e-05 0)
(0.00103136011637 -9.82243757232e-06 0)
(0.00103453981339 -3.03247982374e-06 0)
(0.00103443911968 3.73610874238e-06 0)
(0.00103109979341 1.03262446763e-05 0)
(0.00102463175029 1.66015541802e-05 0)
(0.00101520338398 2.2449579647e-05 0)
(0.0010030310957 2.77817734217e-05 0)
(0.000988369116607 3.25316012183e-05 0)
(0.000971500123344 3.66521249273e-05 0)
(0.00095272666509 4.01140157897e-05 0)
(0.000932363162215 4.29043592431e-05 0)
(0.000910728212487 4.50260957085e-05 0)
(0.000888137081032 4.64976350651e-05 0)
(0.000864894458535 4.73521197787e-05 0)
(0.000841287757105 4.76359499518e-05 0)
(0.000817581311564 4.7406436379e-05 0)
(0.000794011841437 4.67287143887e-05 0)
(0.000770785419978 4.56722473382e-05 0)
(0.000748076032361 4.43073288614e-05 0)
(0.000726025635358 4.27019588565e-05 0)
(0.000704745495289 4.09193560853e-05 0)
(0.000684318500842 3.90162293922e-05 0)
(0.000664802123953 3.7041801723e-05 0)
(0.000646231723632 3.50374903325e-05 0)
(0.000628623937526 3.30370986943e-05 0)
(0.000611979967663 3.1067364312e-05 0)
(0.000596288628305 2.91487201188e-05 0)
(0.000581529077515 2.72961536437e-05 0)
(0.000567673196805 2.55200784289e-05 0)
(0.000554687614481 2.38271605012e-05 0)
(0.000542535389343 2.22210661241e-05 0)
(0.000531177384065 2.07031147552e-05 0)
(0.000520573363967 1.92728334607e-05 0)
(0.000510682858829 1.7928416921e-05 0)
(0.000501465824389 1.66671016621e-05 0)
(0.00049288313743 1.54854652659e-05 0)
(0.000484896954682 1.43796618428e-05 0)
(0.000477470961718 1.33456046279e-05 0)
(0.000470570534053 1.23791056134e-05 0)
(0.000464162828883 1.1475980959e-05 0)
(0.000458216822456 1.06321297148e-05 0)
(0.000452703305108 9.84359226492e-06 0)
(0.000447594843311 9.10659390805e-06 0)
(0.000442865715831 8.41757817822e-06 0)
(0.000438491829153 7.77323386085e-06 0)
(0.000434450615608 7.17051920487e-06 0)
(0.00043072091622 6.60668652973e-06 0)
(0.000427282848997 6.07931030281e-06 0)
(0.000424117662327 5.58632176532e-06 0)
(0.000421207572267 5.1260533301e-06 0)
(0.000418535581881 4.69729617904e-06 0)
(0.000416085280621 4.29937471043e-06 0)
(0.000413840622244 3.93224151444e-06 0)
(0.000411785681473 3.59659609619e-06 0)
(0.000409904393441 3.29402888382e-06 0)
(0.000408180287238 3.02718780225e-06 0)
(0.000406596238162 2.79995490103e-06 0)
(0.000405134286066 2.61759908898e-06 0)
(0.000403775605209 2.48682446352e-06 0)
(0.000402500770838 2.41553181256e-06 0)
(0.000401290552393 2.41188258548e-06 0)
(0.000400127549592 2.48172856806e-06 0)
(0.0003989988872 2.62221383663e-06 0)
(0.00039789902199 2.80663403608e-06 0)
(0.000396826289197 2.95297659867e-06 0)
(0.00121688245732 0.000182373391272 0)
(0.00124884505742 0.000358200452628 0)
(0.00126506165528 0.000407349416684 0)
(0.00125472886289 0.000394438570948 0)
(0.00122363351559 0.000357501016076 0)
(0.00118009762409 0.000314365859212 0)
(0.00113068246692 0.000272527255765 0)
(0.00107977350309 0.000234750849178 0)
(0.00103006665313 0.000201728304762 0)
(0.000983099337174 0.000173289625417 0)
(0.0009396588295 0.000148948709095 0)
(0.000900064774743 0.000128143373763 0)
(0.000864355723111 0.000110335433678 0)
(0.000832409032129 9.50471022718e-05 0)
(0.000804016424774 8.18691180114e-05 0)
(0.000778930709427 7.04570541948e-05 0)
(0.000756894021803 6.05233972089e-05 0)
(0.000737654362464 5.18287858441e-05 0)
(0.000720974800967 4.41738261421e-05 0)
(0.0007066381426 3.73919755919e-05 0)
(0.000694448834149 3.13435771634e-05 0)
(0.000684233230418 2.59109526389e-05 0)
(0.000675838924811 2.09944072806e-05 0)
(0.000669133580906 1.65089915244e-05 0)
(0.000664003532657 1.23818799704e-05 0)
(0.000660352313542 8.55024929639e-06 0)
(0.000658099207053 4.95955848851e-06 0)
(0.000657177867929 1.562154412e-06 0)
(0.000657535036403 -1.68385759068e-06 0)
(0.000659129348797 -4.81551883928e-06 0)
(0.000661930239082 -7.86574213029e-06 0)
(0.00066591691987 -1.08638829316e-05 0)
(0.000671077422407 -1.383616614e-05 0)
(0.000677407671516 -1.68059815714e-05 0)
(0.000684910568782 -1.97940533993e-05 0)
(0.000693595053418 -2.28184830434e-05 0)
(0.000703475106248 -2.58946600815e-05 0)
(0.000714568658062 -2.90350314623e-05 0)
(0.000726896359023 -3.2248715774e-05 0)
(0.000740480161283 -3.55409469748e-05 0)
(0.000755341662626 -3.89123315011e-05 0)
(0.000771500155744 -4.2357905064e-05 0)
(0.000788970326481 -4.58659822173e-05 0)
(0.000807759546669 -4.94168048024e-05 0)
(0.000827864715127 -5.29810169585e-05 0)
(0.000849268616514 -5.65180268707e-05 0)
(0.000871935795633 -5.99743607582e-05 0)
(0.000895807987882 -6.32821731806e-05 0)
(0.000920799208725 -6.63581470243e-05 0)
(0.000946790688421 -6.91030890686e-05 0)
(0.000973625942481 -7.14025887255e-05 0)
(0.00100110638744 -7.31291369938e-05 0)
(0.00102898803212 -7.41460733046e-05 0)
(0.00105697987404 -7.43136141448e-05 0)
(0.00108474467907 -7.34970045654e-05 0)
(0.00111190278744 -7.15765286039e-05 0)
(0.00113803944592 -6.84587490422e-05 0)
(0.00116271590454 -6.40879697746e-05 0)
(0.00118548414272 -5.84565776412e-05 0)
(0.00120590462341 -5.16126788608e-05 0)
(0.00122356594444 -4.36633799186e-05 0)
(0.00123810472439 -3.47723155161e-05 0)
(0.00124922365293 -2.51507660115e-05 0)
(0.00125670555015 -1.50429753729e-05 0)
(0.00126042170451 -4.7077929357e-06 0)
(0.0012603337126 5.60010473849e-06 0)
(0.00125648927616 1.5646005592e-05 0)
(0.00124901347567 2.52256282512e-05 0)
(0.0012380975354 3.41698009699e-05 0)
(0.00122398692814 4.23444341118e-05 0)
(0.00120697004314 4.96477890461e-05 0)
(0.00118736789204 5.6007064023e-05 0)
(0.00116552474976 6.13756581797e-05 0)
(0.00114179935561 6.57315934362e-05 0)
(0.00111655632 6.9076825271e-05 0)
(0.00109015759012 7.14367443775e-05 0)
(0.00106295410176 7.28590982386e-05 0)
(0.00103527797361 7.34117776655e-05 0)
(0.00100743571312 7.31792912303e-05 0)
(0.000979702876264 7.2258143254e-05 0)
(0.000952320478704 7.07516146734e-05 0)
(0.000925493249816 6.87645558785e-05 0)
(0.000899389615533 6.63987418333e-05 0)
(0.000874143139112 6.37491693309e-05 0)
(0.000849855062578 6.09014680204e-05 0)
(0.000826597573151 5.79304115718e-05 0)
(0.000804417451338 5.48993861218e-05 0)
(0.000783339818713 5.18606065367e-05 0)
(0.000763371774904 4.88558564637e-05 0)
(0.000744505781762 4.59175482177e-05 0)
(0.000726722710882 4.30699363801e-05 0)
(0.000709994516025 4.03303618103e-05 0)
(0.000694286524731 3.77104426308e-05 0)
(0.000679559365276 3.52171617697e-05 0)
(0.000665770558347 3.28538257245e-05 0)
(0.000652875809627 3.06208868732e-05 0)
(0.00064083004176 2.8516633158e-05 0)
(0.000629588203519 2.65377557525e-05 0)
(0.000619105891483 2.46798087349e-05 0)
(0.000609339816069 2.29375759362e-05 0)
(0.000600248139857 2.13053598627e-05 0)
(0.000591790712205 1.97772065147e-05 0)
(0.000583929220376 1.83470784619e-05 0)
(0.000576627273958 1.70089869678e-05 0)
(0.000569850436222 1.57570924339e-05 0)
(0.000563566213373 1.45857810791e-05 0)
(0.000557744010234 1.34897246044e-05 0)
(0.000552355058893 1.24639286509e-05 0)
(0.000547372325074 1.15037751329e-05 0)
(0.000542770395519 1.06050630003e-05 0)
(0.00053852534844 9.76405163955e-06 0)
(0.00053461460814 8.97751090683e-06 0)
(0.000531016784198 8.24278165933e-06 0)
(0.000527711495335 7.55785049019e-06 0)
(0.000524679178253 6.92144202045e-06 0)
(0.000521900882736 6.33313123672e-06 0)
(0.000519358056419 5.79347642789e-06 0)
(0.000517032326535 5.30416923806e-06 0)
(0.000514905292427 4.86819030228e-06 0)
(0.000512958352955 4.48994324415e-06 0)
(0.000511172608343 4.17530947887e-06 0)
(0.000509528897647 3.93150737197e-06 0)
(0.000508008058788 3.76652360915e-06 0)
(0.000506591515081 3.68765418454e-06 0)
(0.000505262244766 3.69823114173e-06 0)
(0.000504005877841 3.79074147278e-06 0)
(0.000502810454732 3.93339542613e-06 0)
(0.000501660640784 4.04876242965e-06 0)
(0.00121277517866 0.000152715754384 0)
(0.00124140025141 0.000327270413751 0)
(0.00126501348198 0.000398449623208 0)
(0.00127070695609 0.000407977678932 0)
(0.00125875568144 0.000387008526384 0)
(0.00123381335591 0.000353336562341 0)
(0.00120072688662 0.000316058175572 0)
(0.00116333700528 0.000279518771058 0)
(0.0011243853234 0.000245618911282 0)
(0.00108571672796 0.000215034926827 0)
(0.00104851306684 0.000187847573 0)
(0.001013488465 0.000163863162957 0)
(0.000981036671012 0.000142776486579 0)
(0.000951337284539 0.000124252123285 0)
(0.000924430482954 0.000107963502395 0)
(0.000900268755254 9.36101093313e-05 0)
(0.000878752267415 8.09235140489e-05 0)
(0.000859752746105 6.96678462323e-05 0)
(0.000843129388477 5.96376815513e-05 0)
(0.000828739276465 5.06548873616e-05 0)
(0.000816444029443 4.25652178302e-05 0)
(0.000806113900085 3.52350422279e-05 0)
(0.000797630146446 2.85483743501e-05 0)
(0.000790886253662 2.24042588468e-05 0)
(0.00078578839821 1.67145143947e-05 0)
(0.000782255422401 1.14018082371e-05 0)
(0.000780218499911 6.39802741737e-06 0)
(0.000779620612724 1.64291119706e-06 0)
(0.000780415917783 -2.91708793438e-06 0)
(0.000782569049776 -7.32973227288e-06 0)
(0.000786054390099 -1.16377579913e-05 0)
(0.000790855316577 -1.58794722555e-05 0)
(0.000796963431803 -2.00891916618e-05 0)
(0.000804377761785 -2.42975313182e-05 0)
(0.000813103909883 -2.85315442253e-05 0)
(0.00082315314427 -3.28147054132e-05 0)
(0.000834541391091 -3.71667304411e-05 0)
(0.000847288099736 -4.16032134833e-05 0)
(0.000861414940976 -4.61350666706e-05 0)
(0.000876944293363 -5.0767740185e-05 0)
(0.000893897468325 -5.55002027637e-05 0)
(0.000912292620627 -6.03236660696e-05 0)
(0.000932142288913 -6.52200457455e-05 0)
(0.000953450512529 -7.01601692559e-05 0)
(0.000976209477508 -7.51017688049e-05 0)
(0.00100039565925 -7.99873397481e-05 0)
(0.0010259654555 -8.47420036383e-05 0)
(0.00105285034482 -8.92715911739e-05 0)
(0.00108095166769 -9.34612510819e-05 0)
(0.00111013521266 -9.7174987228e-05 0)
(0.00114022590116 -0.000100256610095 0)
(0.00117100299593 -0.000102532631965 0)
(0.00120219639786 -0.000103817601447 0)
(0.00123348471929 -0.000103922226032 0)
(0.00126449589352 -0.000102664349102 0)
(0.00129481106139 -9.98824382461e-05 0)
(0.0013239723347 -9.54507502248e-05 0)
(0.00135149476111 -8.92948340833e-05 0)
(0.00137688241396 -8.14055865507e-05 0)
(0.0013996480198 -7.18497407392e-05 0)
(0.00141933493385 -6.0774539732e-05 0)
(0.00143553962105 -4.84046121235e-05 0)
(0.00144793223595 -3.50300049556e-05 0)
(0.00145627268391 -2.09860767417e-05 0)
(0.00146041999029 -6.62815047127e-06 0)
(0.00146033398301 7.69446033365e-06 0)
(0.00145606988636 2.1660179116e-05 0)
(0.00144776779677 3.49893382436e-05 0)
(0.0014356396063 4.74502128032e-05 0)
(0.00141995563451 5.88585903088e-05 0)
(0.00140103233856 6.90738008916e-05 0)
(0.00137922148103 7.79940461942e-05 0)
(0.00135490043158 8.55528516339e-05 0)
(0.00132846300471 9.17172035689e-05 0)
(0.00130031032991 9.64869070284e-05 0)
(0.00127084156187 9.98941411597e-05 0)
(0.00124044460676 0.000102002124934 0)
(0.0012094873328 0.000102902132773 0)
(0.00117830986784 0.000102708641201 0)
(0.0011472185391 0.000101552938696 0)
(0.00111648181725 9.95759188877e-05 0)
(0.00108632836418 9.69209145284e-05 0)
(0.00105694703263 9.37273307429e-05 0)
(0.00102848848487 9.0125587329e-05 0)
(0.00100106800728 8.62335879906e-05 0)
(0.000974769090852 8.21546825193e-05 0)
(0.000949647396278 7.79769179125e-05 0)
(0.000925734800274 7.37732910582e-05 0)
(0.00090304330354 6.96027015169e-05 0)
(0.00088156865698 6.55113332458e-05 0)
(0.000861293624875 6.15342460449e-05 0)
(0.000842190850304 5.76970145746e-05 0)
(0.000824225320637 5.4017305074e-05 0)
(0.000807356451986 5.05063228678e-05 0)