/*--------------------------------*- C++ -*----------------------------------*\
  =========                 |
  \\      /  F ield         | OpenFOAM: The Open Source CFD Toolbox
   \\    /   O peration     | Website:  https://openfoam.org
    \\  /    A nd           | Version:  7
     \\/     M anipulation  |
\*---------------------------------------------------------------------------*/
FoamFile
{
    version     2.0;
    format      ascii;
    class       volScalarField;
    location    "2940";
    object      Ci;
}
// * * * * * * * * * * * * * * * * * * * * * * * * * * * * * * * * * * * * * //

dimensions      [0 -3 0 0 1 0 0];

internalField   nonuniform List<scalar> 
8192
(
9.99999999051
10.0000000335
10.0000001024
10.0000002042
10.0000003462
10.0000005183
10.00000071
10.0000009129
10.0000011217
10.0000013312
10.000001538
10.000001738
10.0000019288
10.0000021068
10.0000022704
10.0000024164
10.0000025439
10.0000026503
10.0000027355
10.0000027973
10.0000028365
10.0000028511
10.0000028428
10.0000028101
10.000002755
10.0000026764
10.0000025771
10.000002456
10.0000023162
10.0000021567
10.000001981
10.0000017876
10.0000015802
10.0000013567
10.0000011208
10.0000008697
10.0000006068
10.0000003286
10.0000000375
9.99999972949
9.99999940708
9.99999906606
9.99999870927
9.99999833255
9.99999793937
9.99999752601
9.99999709691
9.99999664908
9.99999618814
9.99999571201
9.99999522766
9.99999473408
9.99999423982
9.99999374523
9.99999326076
9.99999278844
9.99999234083
9.99999192171
9.99999154557
9.99999121738
9.9999909525
9.99999075547
9.9999906401
9.99999060744
9.99999066612
9.99999081044
9.99999104157
9.99999134667
9.99999172089
9.99999214748
9.99999261934
9.99999311951
9.99999364151
9.99999417025
9.99999470115
9.99999522196
9.99999573082
9.99999621899
9.99999668765
9.99999713162
9.99999755475
9.99999795465
9.9999983369
9.99999870076
9.99999905242
9.99999939175
9.99999972454
10.0000000504
10.0000003741
10.0000006942
10.0000010133
10.0000013279
10.0000016396
10.0000019461
10.0000022484
10.0000025435
10.0000028316
10.0000031094
10.0000033765
10.0000036297
10.0000038684
10.0000040899
10.0000042935
10.0000044772
10.0000046405
10.000004782
10.0000049014
10.0000049981
10.0000050718
10.0000051228
10.0000051508
10.0000051566
10.0000051401
10.0000051026
10.000005044
10.000004966
10.0000048684
10.0000047528
10.0000046186
10.000004467
10.0000042963
10.000004107
10.0000038972
10.0000036694
10.0000034269
10.0000031828
10.0000029598
10.0000028037
9.99999999943
10.0000000593
10.0000001306
10.0000002242
10.0000003462
10.0000004933
10.0000006612
10.0000008443
10.000001038
10.000001237
10.0000014371
10.000001634
10.0000018246
10.0000020052
10.0000021736
10.0000023266
10.0000024628
10.0000025798
10.0000026768
10.0000027521
10.0000028057
10.000002836
10.000002844
10.0000028284
10.0000027908
10.0000027303
10.0000026491
10.0000025464
10.0000024248
10.0000022837
10.0000021258
10.0000019503
10.0000017601
10.0000015539
10.0000013343
10.0000010998
10.0000008526
10.0000005905
10.0000003142
10.0000000209
9.99999971229
9.99999938516
9.99999904145
9.99999867783
9.99999829681
9.99999789546
9.99999747713
9.99999703961
9.9999965873
9.99999611888
9.99999563999
9.99999515041
9.99999465724
9.99999416161
9.99999367237
9.99999319228
9.99999273208
9.99999229615
9.99999189691
9.99999153983
9.99999123798
9.99999099655
9.99999082719
9.99999073227
9.99999071912
9.99999078471
9.99999093028
9.99999114701
9.99999143108
9.9999917701
9.99999215792
9.9999925813
9.99999303395
9.99999350342
9.9999939844
9.99999446623
9.99999494547
9.99999541404
9.99999587098
9.99999631111
9.99999673592
9.99999714276
9.99999753496
9.99999791163
9.99999827704
9.99999863117
9.99999897837
9.99999931863
9.99999965566
9.99999998886
10.00000032
10.0000006442
10.0000009645
10.0000012797
10.0000015907
10.0000018953
10.0000021932
10.0000024818
10.0000027603
10.000003026
10.0000032779
10.0000035137
10.0000037324
10.0000039322
10.0000041123
10.0000042715
10.0000044091
10.0000045247
10.0000046177
10.0000046882
10.0000047361
10.0000047617
10.0000047652
10.0000047474
10.0000047084
10.0000046496
10.0000045709
10.0000044738
10.0000043578
10.0000042239
10.0000040708
10.0000038988
10.0000037063
10.0000034955
10.0000032695
10.0000030367
10.0000028083
10.0000026252
10.0000000012
10.0000000769
10.0000001548
10.0000002397
10.000000341
10.0000004595
10.000000595
10.0000007456
10.0000009095
10.000001083
10.0000012636
10.0000014468
10.0000016301
10.0000018092
10.000001982
10.0000021445
10.0000022954
10.0000024311
10.0000025512
10.0000026527
10.0000027359
10.0000027982
10.0000028407
10.000002861
10.0000028611
10.000002839
10.000002797
10.0000027333
10.0000026509
10.000002548
10.0000024278
10.0000022885
10.0000021334
10.0000019603
10.0000017727
10.0000015678
10.000001349
10.0000011132
10.0000008632
10.0000005953
10.0000003124
10.0000000103
9.99999969252
9.9999993547
9.9999990007
9.99999862653
9.99999823677
9.9999978279
9.99999740541
9.99999696637
9.99999651729
9.99999605592
9.99999558991
9.99999511782
9.99999464863
9.99999418192
9.99999372808
9.99999328782
9.99999287288
9.99999248487
9.99999213633
9.99999182897
9.99999157484
9.9999913742
9.99999123655
9.99999115889
9.99999114665
9.99999119296
9.99999129953
9.99999145686
9.99999166449
9.99999191192
9.9999921977
9.99999251126
9.99999285079
9.99999320621
9.99999357604
9.99999395139
9.99999433179
9.99999471014
9.99999508736
9.99999545831
9.99999582525
9.99999618477
9.99999654011
9.9999968891
9.99999723536
9.99999757736
9.99999791852
9.99999825733
9.99999859646
9.9999989331
9.99999926875
9.99999960109
9.99999993103
10.000000256
10.0000005762
10.0000008888
10.0000011933
10.0000014872
10.0000017694
10.0000020377
10.000002291
10.0000025275
10.0000027461
10.0000029456
10.000003125
10.0000032836
10.0000034207
10.000003536
10.0000036291
10.0000037002
10.0000037489
10.0000037762
10.0000037816
10.0000037666
10.0000037306
10.0000036755
10.0000036005
10.0000035071
10.0000033939
10.0000032618
10.0000031087
10.0000029366
10.0000027474
10.0000025478
10.0000023389
10.000002153
10.0000000005
10.0000000911
10.0000001734
10.0000002596
10.0000003565
10.0000004642
10.0000005829
10.0000007126
10.000000853
10.0000010026
10.0000011603
10.0000013234
10.0000014901
10.0000016573
10.0000018228
10.0000019835
10.0000021375
10.0000022818
10.0000024149
10.0000025343
10.000002639
10.0000027269
10.0000027977
10.0000028496
10.0000028829
10.0000028962
10.0000028903
10.0000028642
10.0000028189
10.0000027537
10.00000267
10.0000025672
10.0000024467
10.0000023078
10.0000021521
10.0000019787
10.0000017892
10.0000015822
10.0000013593
10.0000011189
10.0000008625
10.0000005883
10.0000002978
9.99999998961
9.99999966535
9.99999932388
9.99999896745
9.99999859535
9.99999821046
9.99999781254
9.99999740512
9.99999698849
9.9999965668
9.99999614088
9.99999571558
9.9999952924
9.99999487695
9.99999447148
9.99999408234
9.99999371245
9.99999336858
9.99999305382
9.99999277461
9.99999253312
9.99999233408
9.99999217737
9.999992065
9.99999199422
9.99999196485
9.9999919727
9.99999201685
9.99999209292
9.99999219997
9.99999233372
9.99999249314
9.99999267397
9.99999287515
9.9999930926
9.99999332545
9.99999357006
9.99999382591
9.99999408997
9.9999943622
9.99999464028
9.99999492467
9.99999521373
9.99999550829
9.99999580718
9.99999611134
9.99999641971
9.99999673305
9.99999704999
9.99999737056
9.99999769309
9.99999801718
9.99999834088
9.99999866336
9.99999898248
9.99999929704
9.99999960485
9.99999990451
10.0000001939
10.0000004717
10.0000007358
10.0000009851
10.0000012179
10.0000014331
10.0000016295
10.0000018062
10.0000019624
10.0000020974
10.000002211
10.0000023027
10.0000023726
10.0000024206
10.0000024473
10.0000024526
10.0000024375
10.0000024022
10.0000023474
10.0000022731
10.0000021799
10.0000020667
10.0000019353
10.0000017827
10.0000016205
10.0000014297
10.0000012922
10.000000006
10.0000001114
10.0000002088
10.000000301
10.0000003978
10.0000005009
10.0000006111
10.0000007286
10.000000854
10.0000009867
10.0000011263
10.0000012711
10.0000014202
10.0000015715
10.0000017232
10.0000018731
10.0000020193
10.0000021594
10.0000022917
10.0000024139
10.0000025247
10.000002622
10.0000027049
10.0000027716
10.0000028218
10.000002854
10.0000028682
10.0000028635
10.0000028402
10.0000027975
10.0000027363
10.0000026559
10.0000025574
10.0000024401
10.0000023054
10.0000021527
10.0000019832
10.0000017962
10.0000015932
10.0000013734
10.000001138
10.0000008865
10.0000006203
10.0000003388
10.0000000438
9.99999973502
9.9999994146
9.9999990826
9.99999874166
9.99999839214
9.99999803703
9.99999767691
9.99999731508
9.9999969523
9.99999659219
9.99999623579
9.99999588713
9.99999554767
9.99999522185
9.9999949115
9.99999462131
9.99999435313
9.99999411121
9.99999389651
9.99999371171
9.99999355566
9.99999342861
9.99999332725
9.99999325024
9.99999319364
9.99999315626
9.99999313495
9.99999312948
9.99999313774
9.99999316028
9.99999319572
9.99999324508
9.99999330751
9.99999338428
9.99999347475
9.99999358011
9.9999936997
9.99999383443
9.99999398349
9.9999941475
9.99999432553
9.99999451796
9.9999947238
9.99999494316
9.99999517493
9.99999541891
9.99999567377
9.99999593885
9.99999621249
9.99999649357
9.99999678019
9.99999707085
9.99999736346
9.99999765628
9.99999794715
9.99999823419
9.9999985153
9.99999878857
9.99999905207
9.99999930399
9.99999954266
9.99999976644
9.99999997399
10.0000001639
10.0000003352
10.0000004869
10.0000006183
10.0000007287
10.000000818
10.0000008858
10.0000009325
10.0000009579
10.0000009629
10.0000009477
10.0000009133
10.0000008599
10.0000007888
10.0000006982
10.0000005929
10.0000004632
10.0000003349
10.0000001464
10.0000000806
10.0000000058
10.0000001213
10.0000002248
10.0000003262
10.0000004306
10.0000005377
10.0000006481
10.0000007625
10.0000008814
10.0000010051
10.0000011334
10.0000012657
10.0000014013
10.0000015386
10.0000016767
10.0000018135
10.0000019477
10.0000020773
10.0000022005
10.0000023156
10.0000024209
10.0000025146
10.0000025957
10.0000026624
10.0000027139
10.000002749
10.0000027672
10.0000027677
10.0000027503
10.0000027144
10.0000026604
10.0000025879
10.0000024976
10.0000023893
10.0000022639
10.0000021213
10.0000019626
10.0000017879
10.0000015981
10.0000013936
10.0000011754
10.0000009438
10.0000007
10.0000004445
10.0000001787
9.99999990337
9.99999962017
9.99999932993
9.9999990347
9.99999873539
9.99999843414
9.99999813189
9.99999783079
9.9999975318
9.99999723715
9.99999694805
9.99999666699
9.99999639566
9.99999613698
9.9999958931
9.99999566716
9.9999954614
9.99999527845
9.99999511953
9.99999498545
9.99999487495
9.99999478602
9.9999947148
9.9999946576
9.99999460996
9.99999456876
9.99999453073
9.99999449442
9.99999445809
9.99999442181
9.99999438522
9.99999434971
9.99999431612
9.99999428686
9.9999942635
9.9999942488
9.99999424443
9.99999425291
9.9999942755
9.99999431414
9.99999436952
9.99999444288
9.99999453428
9.99999464428
9.99999477235
9.99999491835
9.9999950812
9.99999526013
9.99999545354
9.99999566012
9.99999587785
9.99999610498
9.99999633923
9.99999657859
9.99999682064
9.99999706324
9.99999730399
9.99999754076
9.99999777127
9.99999799351
9.99999820544
9.99999840526
9.99999859126
9.99999876191
9.99999891589
9.99999905205
9.99999916948
9.99999926745
9.99999934554
9.99999940347
9.99999944133
9.99999945928
9.99999945796
9.99999943782
9.99999940018
9.99999934499
9.99999927513
9.99999918668
9.99999909008
9.99999896207
9.99999885871
9.99999865319
9.99999866033
10.00000001
10.0000001336
10.0000002496
10.0000003577
10.0000004662
10.0000005757
10.0000006865
10.0000007993
10.0000009148
10.0000010331
10.0000011543
10.000001278
10.0000014037
10.0000015304
10.000001657
10.0000017821
10.0000019043
10.000002022
10.0000021336
10.0000022374
10.000002332
10.0000024158
10.0000024875
10.0000025457
10.0000025895
10.0000026179
10.0000026301
10.0000026256
10.0000026039
10.000002565
10.0000025087
10.0000024354
10.0000023451
10.0000022384
10.0000021159
10.0000019783
10.0000018261
10.0000016604
10.0000014817
10.0000012914
10.0000010898
10.0000008784
10.0000006578
10.0000004292
10.0000001936
9.99999995218
9.99999970604
9.99999945634
9.99999920436
9.99999895117
9.99999869797
9.99999844571
9.99999819552
9.99999794832
9.99999770536
9.99999746787
9.99999723762
9.99999701657
9.99999680721
9.99999661224
9.99999643466
9.99999627735
9.99999614289
9.99999603299
9.99999594811
9.99999588697
9.99999584665
9.99999582273
9.9999958102
9.99999580379
9.99999579893
9.99999579158
9.9999957788
9.99999575819
9.99999572842
9.9999956887
9.99999563936
9.99999558132
9.99999551646
9.99999544708
9.99999537602
9.99999530621
9.99999524073
9.9999951825
9.99999513426
9.99999509847
9.99999507723
9.99999507225
9.99999508479
9.99999511569
9.99999516531
9.99999523361
9.99999532005
9.99999542378
9.99999554352
9.99999567775
9.99999582459
9.99999598204
9.99999614785
9.99999631974
9.99999649528
9.9999966721
9.99999684774
9.99999701992
9.99999718631
9.99999734484
9.99999749345
9.99999763037
9.99999775392
9.99999786273
9.99999795556
9.99999803152
9.99999808989
9.99999813028
9.99999815251
9.99999815676
9.99999814335
9.99999811312
9.99999806659
9.99999800569
9.99999792978
9.99999784408
9.99999774072
9.9999976394
9.99999749836
9.99999741048
9.99999717995
9.99999724098
10.0000000074
10.0000001352
10.0000002529
10.0000003684
10.0000004849
10.0000006009
10.0000007163
10.0000008315
10.0000009475
10.0000010645
10.0000011826
10.0000013018
10.0000014217
10.0000015413
10.00000166
10.0000017762
10.0000018888
10.0000019963
10.0000020974
10.0000021904
10.000002274
10.0000023467
10.0000024076
10.0000024551
10.0000024887
10.0000025073
10.0000025105
10.0000024976
10.0000024686
10.0000024234
10.0000023621
10.0000022851
10.0000021927
10.000002086
10.0000019649
10.0000018314
10.000001685
10.0000015283
10.0000013605
10.0000011846
10.0000009994
10.0000008079
10.0000006093
10.0000004059
10.0000001976
9.99999998582
9.99999977115
9.99999955448
9.99999933664
9.99999911818
9.99999889993
9.99999868224
9.99999846584
9.99999825117
9.99999803921
9.99999783103
9.99999762842
9.99999743368
9.99999724972
9.9999970801
9.99999692851
9.99999679898
9.99999669472
9.99999661844
9.99999657071
9.9999965505
9.99999655412
9.99999657653
9.99999661153
9.99999665308
9.99999669561
9.99999673441
9.99999676572
9.99999678636
9.99999679412
9.9999967872
9.99999676507
9.99999672769
9.99999667631
9.99999661247
9.99999653871
9.99999645754
9.99999637215
9.99999628541
9.99999620061
9.99999612056
9.99999604819
9.99999598584
9.99999593577
9.99999589955
9.99999587855
9.99999587337
9.99999588441
9.99999591134
9.99999595362
9.99999601009
9.99999607943
9.99999615987
9.99999624953
9.99999634622
9.99999644776
9.99999655176
9.99999665597
9.99999675801
9.99999685571
9.99999694692
9.99999702972
9.99999710229
9.99999716313
9.99999721087
9.99999724448
9.99999726315
9.99999726639
9.99999725398
9.999997226
9.99999718285
9.99999712509
9.9999970539
9.99999696985
9.99999687565
9.9999967698
9.99999666019
9.99999653445
9.99999642172
9.99999626312
9.99999618159
9.99999593352
9.99999601971
10.0000000111
10.000000145
10.0000002724
10.000000392
10.0000005112
10.0000006295
10.0000007467
10.0000008632
10.0000009794
10.0000010958
10.0000012124
10.000001329
10.0000014452
10.0000015604
10.0000016735
10.0000017834
10.0000018889
10.0000019886
10.0000020811
10.0000021652
10.0000022394
10.0000023026
10.0000023536
10.0000023916
10.0000024157
10.0000024254
10.00000242
10.0000023996
10.0000023638
10.0000023133
10.0000022474
10.0000021682
10.0000020742
10.0000019689
10.0000018496
10.0000017221
10.0000015814
10.0000014356
10.0000012775
10.0000011174
10.0000009461
10.0000007747
10.0000005941
10.000000414
10.0000002272
10.0000000404
9.99999984976
9.99999965856
9.9999994654
9.99999927165
9.99999907691
9.99999888175
9.99999868602
9.99999849037
9.99999829512
9.99999810174
9.99999791176
9.99999772821
9.99999755427
9.99999739457
9.99999725352
9.99999713633
9.99999704708
9.99999698932
9.999996964
9.99999697015
9.99999700366
9.99999705894
9.99999712908
9.99999720756
9.9999972883
9.99999736638
9.99999743761
9.99999749868
9.99999754672
9.99999757972
9.99999759623
9.99999759585
9.99999757875
9.99999754602
9.99999749905
9.9999974399
9.99999737069
9.99999729407
9.99999721254
9.99999712899
9.99999704597
9.99999696622
9.99999689195
9.99999682536
9.99999676802
9.99999672132
9.99999668594
9.99999666237
9.99999665037
9.99999664955
9.99999665888
9.9999966772
9.99999670291
9.99999673432
9.99999676945
9.99999680634
9.99999684287
9.99999687704
9.99999690682
9.99999693037
9.99999694595
9.99999695203
9.99999694734
9.99999693081
9.99999690169
9.99999685945
9.99999680398
9.99999673531
9.99999665393
9.99999656049
9.99999645595
9.99999634173
9.99999621867
9.99999608994
9.99999595368
9.99999581938
9.99999567213
9.99999554627
9.99999537483
9.99999529234
9.99999504299
9.99999512722
10.0000000079
10.0000001452
10.0000002733
10.000000399
10.0000005252
10.0000006496
10.0000007717
10.0000008918
10.0000010106
10.0000011284
10.0000012456
10.0000013617
10.0000014767
10.0000015897
10.0000016999
10.0000018061
10.000001907
10.0000020015
10.0000020881
10.0000021656
10.0000022328
10.0000022887
10.0000023324
10.000002363
10.0000023799
10.0000023827
10.000002371
10.0000023452
10.0000023045
10.0000022508
10.0000021819
10.0000021026
10.0000020076
10.0000019065
10.0000017883
10.0000016699
10.0000015318
10.0000014008
10.0000012466
10.0000011065
10.0000009406
10.0000007929
10.00000062
10.0000004645
10.0000002885
10.0000001247
9.99999994796
9.99999977643
9.99999959851
9.99999942089
9.99999923993
9.99999905702
9.99999887152
9.9999986838
9.99999849424
9.99999830418
9.99999811551
9.99999793163
9.99999775646
9.99999759583
9.99999745527
9.99999734168
9.99999726015
9.99999721555
9.99999720887
9.99999723913
9.99999730073
9.99999738699
9.99999748931
9.99999760041
9.99999771341
9.99999782334
9.99999792595
9.99999801805
9.99999809696
9.99999816056
9.99999820757
9.99999823751
9.99999825067
9.99999824781
9.99999823013
9.99999819897
9.99999815603
9.9999981029
9.99999804157
9.99999797412
9.99999790276
9.99999782965
9.9999977569
9.9999976864
9.99999761983
9.99999755851
9.99999750343
9.99999745514
9.99999741385
9.9999973793
9.99999735096
9.99999732788
9.99999730895
9.99999729269
9.99999727764
9.99999726203
9.99999724425
9.99999722252
9.99999719529
9.99999716096
9.99999711828
9.99999706601
9.99999700334
9.9999969295
9.99999684426
9.9999967474
9.99999663931
9.9999965203
9.9999963914
9.99999625343
9.99999610794
9.99999595635
9.99999580013
9.99999564224
9.99999548153
9.99999532703
9.99999516476
9.99999502777
9.99999485239
9.99999476459
9.99999453011
9.99999459551
10.0000000118
10.0000001557
10.0000002934
10.0000004228
10.000000551
10.0000006775
10.0000008016
10.0000009236
10.0000010439
10.000001163
10.0000012808
10.0000013973
10.0000015119
10.0000016241
10.0000017329
10.000001837
10.0000019353
10.0000020264
10.0000021091
10.0000021823
10.0000022447
10.0000022955
10.0000023338
10.0000023592
10.0000023709
10.0000023692
10.0000023529
10.0000023241
10.0000022797
10.0000022255
10.0000021538
10.0000020778
10.0000019802
10.0000018881
10.0000017659
10.0000016642
10.0000015187
10.0000014144
10.0000012472
10.0000011445
10.0000009598
10.0000008578
10.0000006633
10.0000005554
10.0000003617
10.0000002389
10.000000054
9.99999991079
9.99999973462
9.99999957294
9.99999939752
9.9999992227
9.99999904231
9.9999988587
9.9999986716
9.99999848227
9.99999829263
9.99999810575
9.99999792651
9.99999776143
9.9999976178
9.99999750364
9.99999742595
9.9999973901
9.99999739788
9.99999744711
9.99999753151
9.99999764234
9.99999777019
9.99999790636
9.99999804372
9.99999817668
9.99999830117
9.99999841409
9.99999851298
9.9999985961
9.99999866256
9.99999871235
9.99999874606
9.99999876474
9.99999876946
9.99999876148
9.99999874192
9.99999871217
9.99999867342
9.99999862735
9.99999857524
9.9999985188
9.99999845954
9.99999839907
9.99999833866
9.99999827952
9.9999982224
9.99999816787
9.99999811607
9.9999980669
9.99999801984
9.99999797422
9.99999792901
9.99999788311
9.99999783519
9.9999977839
9.99999772785
9.99999766569
9.99999759616
9.99999751814
9.99999743068
9.99999733306
9.99999722483
9.99999710573
9.99999697592
9.99999683565
9.99999668576
9.99999652691
9.99999636067
9.99999618798
9.9999960111
9.99999583114
9.99999565069
9.9999954716
9.9999952948
9.99999512643
9.99999495728
9.99999481281
9.99999464255
9.99999454878
9.99999434043
9.99999438106
10.0000000087
10.0000001563
10.0000002952
10.0000004308
10.0000005661
10.0000006989
10.0000008283
10.0000009546
10.0000010785
10.0000012003
10.0000013204
10.0000014386
10.0000015545
10.0000016674
10.0000017764
10.0000018802
10.0000019777
10.0000020675
10.0000021483
10.000002219
10.0000022787
10.0000023264
10.0000023614
10.0000023837
10.0000023919
10.0000023877
10.0000023681
10.0000023385
10.0000022907
10.000002239
10.0000021628
10.000002095
10.0000019893
10.000001915
10.0000017764
10.0000017084
10.000001531
10.0000014839
10.0000012611
10.0000012461
10.0000009768
10.0000009935
10.0000006897
10.0000007188
10.00000041
10.0000004157
10.0000001367
10.0000000834
9.99999985217
9.99999973479
9.99999954116
9.99999938112
9.99999919865
9.9999990174
9.99999882865
9.99999863529
9.99999843872
9.99999824308
9.9999980534
9.99999787774
9.99999772539
9.99999760741
9.99999753252
9.99999750852
9.99999753681
9.99999761463
9.99999773216
9.99999787824
9.99999804031
9.99999820847
9.99999837409
9.99999853144
9.99999867641
9.9999988059
9.99999891766
9.99999901044
9.99999908424
9.99999913997
9.99999917942
9.99999920439
9.99999921671
9.99999921779
9.99999920892
9.99999919111
9.99999916542
9.99999913286
9.99999909455
9.99999905156
9.99999900501
9.99999895577
9.99999890482
9.99999885286
9.99999880045
9.99999874782
9.999998695
9.99999864166
9.99999858735
9.99999853124
9.99999847248
9.99999840994
9.99999834255
9.99999826904
9.99999818836
9.99999809932
9.9999980011
9.99999789278
9.99999777393
9.99999764406
9.9999975033
9.99999735164
9.99999718985
9.99999701839
9.99999683876
9.99999665169
9.99999645955
9.999996263
9.99999606544
9.99999586701
9.99999567222
9.99999548056
9.9999952967
9.99999512147
9.99999495372
9.99999480658
9.9999946491
9.99999455158
9.99999437572
9.99999439397
10.0000000127
10.0000001676
10.0000003163
10.0000004557
10.0000005933
10.0000007284
10.0000008604
10.0000009894
10.0000011159
10.0000012401
10.0000013624
10.0000014825
10.0000016002
10.0000017145
10.0000018247
10.0000019293
10.0000020272
10.0000021169
10.0000021972
10.0000022671
10.0000023254
10.0000023717
10.0000024046
10.0000024254
10.0000024311
10.0000024263
10.0000024035
10.0000023756
10.0000023231
10.0000022778
10.0000021927
10.0000021409
10.0000020162
10.0000019758
10.000001797
10.0000017957
10.0000015385
10.0000016129
10.000001245
10.0000014338
10.000000927
10.0000012507
10.0000006067
10.000001038
10.000000316
10.0000007561
10.0000000728
10.00000039
9.99999986603
9.99999997592
9.99999964181
9.99999957168
9.99999935185
9.99999919124
9.99999899751
9.99999880294
9.99999860124
9.99999839639
9.99999819476
9.99999800702
9.99999784506
9.99999772102
9.99999764767
9.99999763502
9.99999768539
9.99999779233
9.99999794331
9.99999812355
9.99999831937
9.99999851899
9.9999987128
9.99999889448
9.99999905892
9.99999920249
9.99999932321
9.99999942035
9.99999949491
9.99999954906
9.99999958577
9.99999960806
9.99999961848
9.99999961906
9.99999961118
9.99999959598
9.99999957427
9.99999954694
9.99999951465
9.99999947831
9.99999943854
9.99999939621
9.99999935166
9.99999930526
9.99999925714
9.99999920734
9.99999915555
9.99999910133
9.99999904397
9.99999898266
9.99999891638
9.9999988441
9.99999876469
9.9999986771
9.99999858032
9.99999847346
9.99999835581
9.99999822684
9.99999808634
9.99999793422
9.99999777091
9.99999759679
9.99999741304
9.99999722037
9.99999702087
9.99999681524
9.99999660672
9.99999639541
9.99999618616
9.99999597757
9.99999577677
9.9999955798
9.99999539645
9.99999522026
9.99999506072
9.99999491529
9.99999477646
9.99999467862
9.99999453859
9.99999453993
10.0000000098
10.0000001687
10.000000319
10.0000004648
10.0000006095
10.000000751
10.0000008888
10.0000010229
10.0000011538
10.000001282
10.0000014078
10.0000015311
10.0000016517
10.0000017687
10.0000018812
10.0000019879
10.0000020876
10.0000021786
10.0000022599
10.0000023304
10.0000023887
10.000002435
10.0000024671
10.000002488
10.0000024918
10.0000024882
10.000002462
10.0000024383
10.0000023789
10.0000023447
10.0000022446
10.0000022183
10.0000020602
10.000002075
10.0000018237
10.0000019358
10.0000015286
10.0000018249
10.0000011663
10.0000017612
10.0000007368
10.0000017407
10.000000269
10.0000017097
9.99999983307
10.0000015586
9.99999954096
10.0000011822
9.99999945865
10.0000005864
9.99999949186
9.9999999423
9.99999942568
9.99999941883
9.99999915845
9.99999898086
9.99999876479
9.99999854023
9.99999831661
9.99999811212
9.99999793228
9.99999779155
9.99999771951
9.99999773439
9.99999782654
9.99999797613
9.99999816552
9.99999838392
9.99999862306
9.99999886981
9.99999911207
9.99999933696
9.99999953483
9.99999970032
9.99999983158
9.99999992919
9.99999999631
10.0000000374
10.0000000582
10.0000000633
10.0000000572
10.0000000426
10.0000000215
9.9999999951
9.99999996433
9.99999992977
9.99999989206
9.99999985169
9.99999980914
9.99999976481
9.99999971896
9.99999967175
9.99999962278
9.99999957164
9.99999951785
9.9999994606
9.99999939909
9.99999933223
9.99999925905
9.99999917833
9.99999908908
9.99999899017
9.99999888082
9.99999876015
9.99999862778
9.99999848323
9.99999832673
9.99999815824
9.99999797876
9.99999778863
9.99999758977
9.99999738268
9.99999717041
9.99999695305
9.99999673532
9.99999651587
9.99999630199
9.99999608935
9.99999588934
9.99999569239
9.99999551599
9.99999534314
9.99999519771
9.99999505714
9.9999949418
9.99999484597
9.99999474395
9.99999473287
10.0000000139
10.0000001802
10.0000003402
10.0000004897
10.0000006367
10.0000007808
10.0000009214
10.0000010588
10.0000011931
10.0000013247
10.0000014538
10.0000015804
10.0000017041
10.0000018242
10.0000019397
10.0000020492
10.0000021513
10.0000022447
10.0000023277
10.0000023998
10.0000024589
10.0000025065
10.0000025383
10.0000025603
10.0000025625
10.0000025613
10.0000025312
10.0000025134
10.0000024455
10.0000024253
10.000002306
10.0000023116
10.0000021098
10.0000021955
10.0000018458
10.0000021116
10.0000014896
10.0000021085
10.0000010015
10.0000022427
10.0000003393
10.0000025522
9.99999949365
10.0000029899
9.99999856342
10.0000033611
9.99999783439
10.0000033081
9.99999768427
10.0000025292
9.99999822599
10.0000011966
9.99999896457
9.99999999038
9.99999920735
9.99999926867
9.99999895589
9.99999871895
9.99999850105
9.99999829118
9.99999804819
9.99999786887
9.99999787124
9.99999798107
9.99999803838
9.99999798856
9.9999979216
9.99999796997
9.99999820227
9.99999859023
9.9999990521
9.99999950054
9.99999987983
10.0000001692
10.000000372
10.0000005015
10.0000005739
10.000000604
10.0000006048
10.0000005861
10.0000005555
10.0000005179
10.0000004761
10.0000004318
10.0000003855
10.0000003374
10.0000002875
10.0000002359
10.0000001828
10.0000001282
10.0000000724
10.0000000152
9.99999995691
9.99999989652
9.99999983335
9.99999976659
9.99999969519
9.99999961808
9.99999953405
9.99999944193
9.99999934061
9.99999922904
9.99999910641
9.99999897196
9.99999882544
9.99999866648
9.9999984956
9.9999983128
9.99999811963
9.9999979162
9.99999770541
9.99999748698
9.99999726568
9.99999703981
9.99999681703
9.99999659249
9.99999637849
9.99999616433
9.9999959699
9.9999957745
9.99999561004
9.99999544048
9.99999531415
9.99999517616
9.99999508883
9.99999499022
9.99999492852
9.9999948984
10.0000000112
10.0000001817
10.0000003433
10.000000499
10.0000006528
10.0000008031
10.0000009495
10.0000010922
10.0000012315
10.0000013678
10.0000015013
10.0000016321
10.0000017599
10.000001884
10.0000020033
10.0000021165
10.0000022221
10.0000023187
10.0000024045
10.0000024794
10.0000025403
10.0000025899
10.0000026224
10.0000026464
10.0000026478
10.0000026493
10.0000026164
10.0000026039
10.0000025294
10.0000025209
10.0000023862
10.0000024185
10.0000021802
10.0000023274
10.00000189
10.0000022992
10.0000014672
10.0000024186
10.0000008212
10.0000028128
9.99999981676
10.0000036341
9.99999829936
10.0000049824
9.99999625262
10.0000067135
9.99999405396
10.0000081611
9.99999267266
10.0000081461
9.99999327936
10.0000058664
9.99999586283
10.000002398
9.99999829013
10.0000001139
9.99999889706
9.99999900475
9.99999884299
9.99999839065
9.9999978493
9.99999806891
9.99999877788
9.99999833117
9.99999572585
9.99999167197
9.99998794828
9.9999860917
9.9999865772
9.99998887114
9.99999198045
9.99999501208
9.99999745261
9.99999916363
10.0000002371
10.0000008451
10.0000011509
10.0000012747
10.0000012941
10.0000012542
10.0000011811
10.0000010897
10.0000009898
10.000000888
10.000000789
10.0000006955
10.0000006091
10.0000005296
10.0000004565
10.0000003881
10.0000003231
10.00000026
10.0000001971
10.0000001334
10.0000000667
9.99999999553
9.99999991857
9.99999983439
9.99999974188
9.99999963972
9.9999995271
9.99999940288
9.99999926677
9.99999911786
9.99999895664
9.99999878239
9.99999859676
9.9999983989
9.99999819217
9.99999797494
9.99999775312
9.999997523
9.99999729449
9.99999705956
9.99999683458
9.99999660355
9.99999639343
9.99999617441
9.99999599074
9.99999579004
9.99999564377
9.99999546485
9.99999536455
9.9999952075
9.9999951547
9.99999501862
9.99999500123
9.99999490051
10.0000000151
10.000000193
10.0000003638
10.000000523
10.0000006788
10.0000008314
10.0000009808
10.0000011269
10.0000012699
10.0000014101
10.0000015476
10.0000016824
10.0000018143
10.0000019424
10.0000020657
10.000002183
10.0000022923
10.0000023928
10.0000024818
10.0000025597
10.000002623
10.0000026751
10.0000027089
10.0000027346
10.0000027366
10.0000027394
10.0000027065
10.0000026954
10.0000026205
10.0000026143
10.0000024787
10.000002516
10.0000022732
10.0000024353
10.0000019772
10.0000024356
10.0000015231
10.0000026351
10.0000007674
10.0000032462
9.99999944333
10.000004608
9.99999712686
10.0000071805
9.99999336769
10.000011303
9.99998810638
10.0000165429
9.999982526
10.0000207737
9.99997974317
10.0000202063
9.99998335127
10.0000128144
9.99999200189
10.0000040983
9.99999716009
10.0000008072
9.99999898219
9.99999698876
9.99999807622
10.0000031883