/*--------------------------------*- C++ -*----------------------------------*\
  =========                 |
  \\      /  F ield         | OpenFOAM: The Open Source CFD Toolbox
   \\    /   O peration     | Website:  https://openfoam.org
    \\  /    A nd           | Version:  7
     \\/     M anipulation  |
\*---------------------------------------------------------------------------*/
FoamFile
{
    version     2.0;
    format      ascii;
    class       volScalarField;
    location    "2940";
    object      p;
}
// * * * * * * * * * * * * * * * * * * * * * * * * * * * * * * * * * * * * * //

dimensions      [0 2 -2 0 0 0 0];

internalField   nonuniform List<scalar> 
8192
(
0.00056134428462
0.000389790402505
0.000304164020354
0.000260036501718
0.000234996676654
0.000219745138072
0.000209864457146
0.000203110284886
0.00019827576432
0.000194676813005
0.000191905974474
0.0001897092195
0.000187921555445
0.000186431915174
0.000185163203866
0.000184060501275
0.000183083820525
0.000182203507383
0.000181397223399
0.00018064791056
0.000179942382395
0.000179270326147
0.000178623581045
0.000177995606342
0.000177381081847
0.00017677560269
0.000176175441438
0.000175577358984
0.000174978450265
0.000174376014736
0.000173767443807
0.000173150119892
0.000172521321418
0.000171878129918
0.000171217335407
0.000170535337416
0.000169828038712
0.000169090729998
0.000168317963638
0.00016750341615
0.000166639739532
0.000165718404071
0.000164729536789
0.0001636617638
0.00016250206805
0.00016123568003
0.000159846023857
0.000158314748326
0.000156621876849
0.000154746114623
0.000152665349459
0.000150357376779
0.000147800862884
0.000144976537267
0.000141868570456
0.000138466056383
0.000134764477607
0.000130766999878
0.000126485422473
0.000121940616883
0.000117162322408
0.000112188243477
0.0001070624989
0.000101833591011
9.65521507043e-05
9.12687437906e-05
8.60319792857e-05
8.08870570227e-05
7.58747708125e-05
7.10309048212e-05
6.63859140202e-05
6.19647793386e-05
5.7786956661e-05
5.3866383195e-05
5.02115435479e-05
4.68256257527e-05
4.37068038542e-05
4.08486744053e-05
3.82408495225e-05
3.58696824441e-05
3.37190766907e-05
3.17713180323e-05
3.00078671728e-05
2.84100629011e-05
2.69597017438e-05
2.56394799791e-05
2.4433299355e-05
2.33264506226e-05
2.2305694912e-05
2.13592662084e-05
2.04768165893e-05
1.9649323926e-05
1.8868977443e-05
1.81290535153e-05
1.74237900592e-05
1.6748265657e-05
1.60982867546e-05
1.54702851381e-05
1.48612262156e-05
1.42685282846e-05
1.36899920418e-05
1.31237396728e-05
1.2568162379e-05
1.20218754516e-05
1.14836797667e-05
1.09525288524e-05
1.04275005853e-05
9.90777280433e-06
9.39260213408e-06
8.8813054796e-06
8.37324374626e-06
7.86780747306e-06
7.36440428504e-06
6.86244824612e-06
6.3613516596e-06
5.86052029482e-06
5.3593540859e-06
4.85725666784e-06
4.35365990806e-06
3.84807391607e-06
3.34018161973e-06
2.83001259439e-06
2.31826267618e-06
1.80689150651e-06
1.30027946292e-06
8.07595279158e-07
3.48615053939e-07
2.18424850815e-08
0.000412434760551
0.000348916667049
0.000299219000854
0.000266556484606
0.000244622838015
0.000229428746442
0.000218596223168
0.000210660861337
0.000204697703959
0.000200108523512
0.000196497317756
0.000193595901751
0.000191218613486
0.000189234225594
0.000187548186311
0.000186091164231
0.000184811508073
0.000183670182975
0.00018263730292
0.000181689711417
0.00018080926323
0.000179981583438
0.000179195156757
0.000178440649107
0.00017771039452
0.000176998001412
0.000176298045544
0.000175605826618
0.000174917171421
0.000174228270732
0.000173535540619
0.000172835501524
0.000172124668546
0.000171399448409
0.000170656039178
0.000169890329856
0.000169097797103
0.000168273397443
0.000167411453446
0.000166505533833
0.000165548327991
0.000164531517522
0.000163445648892
0.000162280014495
0.000161022552175
0.000159659777859
0.000158176769766
0.000156557227889
0.000154783635623
0.000152837553188
0.000150700070598
0.000148352442421
0.000145776913203
0.000142957723232
0.000139882257009
0.000136542266743
0.000132935071435
0.000129064607195
0.00012494218935
0.000120586851731
0.000116025157007
0.000111290432124
0.000106421468157
0.000101460820492
9.64529193912e-05
9.14422252271e-05
8.64716288823e-05
8.15812096276e-05
7.6807361188e-05
7.21822384111e-05
6.77334390675e-05
6.34838349533e-05
5.94514899635e-05
5.56496373217e-05
5.20867184559e-05
4.87665071246e-05
4.56883470323e-05
4.28475230333e-05
4.02357661433e-05
3.78418707805e-05
3.56523829861e-05
3.36523088873e-05
3.18257922014e-05
3.01567192711e-05
2.86292236135e-05
2.72280778183e-05
2.59389732521e-05
2.47486981616e-05
2.36452297732e-05
2.26177586204e-05
2.16566624228e-05
2.07534453776e-05
1.99006556002e-05
1.90917910641e-05
1.83212013614e-05
1.75839907479e-05
1.68759257679e-05
1.61933497007e-05
1.55331047395e-05
1.4892462379e-05
1.42690617446e-05
1.36608555301e-05
1.3066062821e-05
1.248312819e-05
1.19106862639e-05
1.1347531126e-05
1.07925898481e-05
1.02448996086e-05
9.70358786335e-06
9.16785517716e-06
8.63696041001e-06
8.11020809192e-06
7.5869380136e-06
7.0665172624e-06
6.54833533117e-06
6.03180335239e-06
5.51635935761e-06
5.00148251004e-06
4.48672119014e-06
3.97174253186e-06
3.45641575337e-06
2.94094895302e-06
2.42611171426e-06
1.91359742451e-06
1.40661787311e-06
9.10921250037e-07
4.36138278922e-07
6.03988189378e-08
0.00032949801922
0.000306824361377
0.000280823842962
0.00025957748722
0.000243448405794
0.000231128249639
0.00022159807357
0.000214130596571
0.000208204025396
0.000203439296971
0.000199558195428
0.000196354723729
0.000193675073314
0.000191403421608
0.00018945178746
0.000187752746025
0.000186254168152
0.00018491539746
0.000183704451515
0.000182595955971
0.000181569606035
0.000180609010121
0.000179700812208
0.000178834019296
0.000177999480522
0.000177189479532
0.000176397411487
0.000175617523935
0.000174844705701
0.000174074311164
0.000173302011259
0.000172523664948
0.000171735204167
0.000170932528057
0.000170111402621
0.000169267363163
0.000168395616816
0.000167490943784
0.000166547595821
0.000165559192042
0.000164518612359
0.000163417890907
0.000162248112685
0.000160999319635
0.000159660434178
0.000158219212363
0.000156662241528
0.000154975002115
0.000153142015725
0.000151147104522
0.000148973785611
0.000146605820374
0.000144027927538
0.000141226653142
0.000138191366742
0.000134915327359
0.000131396734105
0.00012763965405
0.000123654704258
0.000119459366164
0.000115077830852
0.000110540324857
0.000105881943799
0.000101141116
9.63578940586e-05
9.1572297219e-05
8.68228962937e-05
8.21457387591e-05
7.75736073643e-05
7.31355603104e-05
6.88566683764e-05
6.4757868734e-05
6.08558811963e-05
5.7163166642e-05
5.36879350397e-05
5.04342294273e-05
4.74021148666e-05
4.45879927813e-05
4.19850410479e-05
3.95837593155e-05
3.7372580217e-05
3.53384990564e-05
3.34676748492e-05
3.17459657593e-05
3.01593747514e-05
2.86943960516e-05
2.73382638669e-05
2.60791135426e-05
2.49060689889e-05
2.38092722551e-05
2.27798698449e-05
2.18099691431e-05
2.08925754489e-05
2.00215182805e-05
1.91913729741e-05
1.83973822448e-05
1.76353804919e-05
1.69017228997e-05
1.61932201968e-05
1.55070796652e-05
1.48408522936e-05
1.4192385959e-05
1.35597841353e-05
1.29413697331e-05
1.23356534816e-05
1.17413063933e-05
1.11571357888e-05
1.05820644644e-05
1.00151126177e-05
9.45538221885e-06
8.90204363182e-06
8.35432434145e-06
7.81149985883e-06
7.27288694667e-06
6.73783966963e-06
6.20574894248e-06
5.67604686393e-06
5.1482175483e-06
4.62181724835e-06
4.0965075642e-06
3.57210755159e-06
3.04867289506e-06
2.52661458897e-06
2.00687512571e-06
1.49118682441e-06
9.82383942868e-07
4.84181254834e-07
7.09828348316e-08
0.000284963607952
0.000276564397819
0.000262359630565
0.000248554940469
0.000237114729212
0.000227828782485
0.000220244827765
0.000213994944021
0.000208801187987
0.000204451082856
0.000200778875833
0.000197653455574
0.000194970297725
0.000192645705801
0.000190612458848
0.000188816419461
0.000187213855058
0.000185769313716
0.00018445393876
0.000183244131705
0.000182120491092
0.000181066969155
0.000180070199845
0.000179118961507
0.00017820374508
0.00017731640508
0.000176449875295
0.000175597935161
0.000174755015982
0.000173916036378
0.000173076261581
0.000172231181665
0.000171376402219
0.00017050754419
0.000169620149795
0.000168709592065
0.000167770985832
0.000166799098722
0.000165788260976
0.00016473227385
0.000163624316798
0.000162456854996
0.000161221549787
0.000159909176683
0.000158509557527
0.000157011516531
0.000155402872916
0.000153670486956
0.000151800379477
0.000149777948087
0.000147588303816
0.000145216749442
0.000142649412283
0.000139874029973
0.000136880866034
0.00013366370627
0.000130220858974
0.000126556057664
0.000122679147092
0.000118606428137
0.000114360550678
0.000109969888206
0.00010546740862
0.000100889162239
9.62726005684e-05
9.16549680681e-05
8.70719767194e-05
8.25568529852e-05
7.81397233715e-05
7.38472680992e-05
6.97025441563e-05
6.57248896967e-05
6.19298572985e-05
5.83291616187e-05
5.49306575551e-05
5.17383834062e-05
4.87527056282e-05
4.5970590223e-05
4.338600346e-05
4.09904203818e-05
3.87733997348e-05
3.67231754185e-05
3.48272167982e-05
3.30727217513e-05
3.14470209814e-05
2.99378869026e-05
2.85337512811e-05
2.72238431315e-05
2.59982613199e-05
2.48479970309e-05
2.37649197078e-05
2.27417381968e-05
2.17719462395e-05
2.08497594564e-05
1.9970048843e-05
1.91282744375e-05
1.832042143e-05
1.75429402438e-05
1.67926913069e-05
1.60668949116e-05
1.5363086115e-05
1.46790745479e-05
1.40129087713e-05
1.3362844847e-05
1.27273186792e-05
1.21049217609e-05
1.14943799154e-05
1.08945347076e-05
1.03043272092e-05
9.72278387328e-06
9.14900432671e-06
8.58215095759e-06
8.02144026836e-06
7.46613604812e-06
6.91554457321e-06
6.36901216997e-06
5.82592573497e-06
5.285717043e-06
4.747872148e-06
4.21194772147e-06
3.67759720439e-06
3.14461107086e-06
2.61297768379e-06
2.08297211326e-06
1.55526645663e-06
1.03095009172e-06
5.10846778118e-07
7.26974299315e-08
0.000257367078658
0.000255380455269
0.000247563416932
0.00023835455634
0.000230059203164
0.000223014998142
0.000217065145889
0.000212004430912
0.000207664550972
0.000203915822084
0.000200656946355
0.000197806637473
0.000195298238078
0.000193076351242
0.000191094613205
0.000189314091218
0.00018770204056
0.000186230891172
0.000184877400186
0.000183621936281
0.000182447874219
0.000181341083433
0.000180289496929
0.000179282748515
0.000178311867606
0.000177369022201
0.00017644730175
0.000175540532836
0.000174643122361
0.000173749919935
0.000172856098328
0.000171957048894
0.000171048285985
0.000170125358701
0.000169183767651
0.000168218884801
0.000167225874631
0.000166199615341
0.000165134619025
0.000164024950348
0.000162864143652
0.000161645119392
0.000160360101637
0.000159000540057
0.000157557041556
0.000156019319513
0.000154376171638
0.000152615501608
0.000150724403648
0.000148689333453
0.000146496391037
0.000144131740589
0.000141582185928
0.0001388359071
0.000135883342043
0.000132718170198
0.000129338324682
0.000125746932323
0.000121953058553
0.000117972121865
0.000113825846911
0.000109541664178
0.000105151552487
0.000100690451731
9.61944962764e-05
9.16993577621e-05
8.72389463569e-05
8.28445548845e-05
7.85443721487e-05
7.43632648187e-05
7.03227042476e-05
6.64407354398e-05
6.27319342824e-05
5.9207345218e-05
5.58744268074e-05
5.27370522936e-05
4.97956132931e-05
4.70472595318e-05
4.44862801429e-05
4.21046023702e-05
3.98923604277e-05
3.78384781738e-05
3.59312138177e-05
3.41586295584e-05
3.25089666988e-05
3.09709229618e-05
2.95338398966e-05
2.81878146663e-05
2.69237523969e-05
2.57333747208e-05
2.46091978501e-05
2.35444910013e-05
2.25332232752e-05
2.15700049755e-05
2.06500274274e-05
1.97690040746e-05
1.89231145134e-05
1.81089524771e-05
1.73234781978e-05
1.65639753001e-05
1.58280120994e-05
1.51134070931e-05
1.44181983142e-05
1.37406162154e-05
1.30790597191e-05
1.24320750936e-05
1.17983373295e-05
1.11766337207e-05
1.05658493905e-05
9.96495453056e-06
9.37299317573e-06
8.78907335607e-06
8.21235854519e-06
7.64206034133e-06
7.07743242723e-06
6.51776589412e-06
5.96238619185e-06
5.4106520955e-06
4.86195743353e-06
4.31573672226e-06
3.77147661905e-06
3.22873585998e-06
2.68717642005e-06
2.14660316299e-06
1.60698030964e-06
1.06827870632e-06
5.29705843115e-07
7.29948970324e-08
0.000239041889633
0.000239913147805
0.000235849002131
0.000229696329551
0.000223586706424
0.000218141781874
0.000213411919888
0.00020930204344
0.000205705384098
0.000202533301418
0.000199716301442
0.000197199482583
0.000194938338754
0.000192895861438
0.000191040690523
0.000189345932933
0.000187788369253
0.000186347879013
0.000185006991374
0.00018375051275
0.00018256520693
0.000181439515339
0.00018036331071
0.000179327679922
0.000178324732725
0.000177347433457
0.000176389452986
0.000175445038239
0.000174508897784
0.000173576096965
0.000172641964802
0.000171702011448
0.000170751850336
0.000169787125096
0.000168803439607
0.000167796289774
0.000166760995656
0.00016569263288
0.000164585962305
0.000163435357329
0.000162234728446
0.000160977445346
0.000159656257532
0.000158263215747
0.000156789598095
0.000155225847328
0.000153561528903
0.000151785323823
0.000149885075225
0.000147847913148
0.000145660486249
0.000143309330919
0.000140781403986
0.00013806479296
0.000135149595557
0.00013202893021
0.000128700005439
0.000125165144297
0.000121432632951
0.00011751724138
0.000113440255903
0.000109228892563
0.000104915058953
0.000100533601873
9.61203514732e-05
9.17103290089e-05
8.73364298865e-05
8.30286595806e-05
7.88137903902e-05
7.47152932393e-05
7.0753386437e-05
6.6945078959e-05
6.33041524889e-05
5.98410832361e-05
5.65629462204e-05
5.34733661918e-05
5.05725790355e-05
4.78576472932e-05
4.53228385497e-05
4.29601376202e-05
4.07598352927e-05
3.87111266105e-05
3.68026597342e-05
3.50229960392e-05
3.3360964165e-05
3.18059092196e-05
3.03478499865e-05
2.89775624079e-05
2.76866081243e-05
2.64673248477e-05
2.5312792027e-05
2.42167820336e-05
2.31737040898e-05
2.21785459116e-05
2.12268162143e-05
2.03144900448e-05
1.9437957968e-05
1.85939796222e-05
1.77796417222e-05
1.69923204143e-05
1.62296477009e-05
1.54894816311e-05
1.47698798795e-05
1.40690763736e-05
1.33854606092e-05
1.27175593421e-05
1.20640203509e-05
1.14235980079e-05
1.0795140415e-05
1.01775778926e-05
9.56991263698e-06
8.9712093854e-06
8.38058696062e-06
7.79721059439e-06
7.22028497795e-06
6.64904803922e-06
6.08276554971e-06
5.5207267926e-06
4.96224175345e-06
4.4066405562e-06
3.8532761241e-06
3.30153070688e-06
2.75082432268e-06
2.20061270511e-06
1.6503286351e-06
1.09913255503e-06
5.45201876382e-07
7.35869322713e-08
0.000226181958324
0.000228277085626
0.000226454219143
0.000222416115293
0.00021791225415
0.000213659044667
0.000209845583251
0.000206466107013
0.000203463152294
0.000200776226532
0.000198354272426
0.000196156474264
0.00019415020625
0.000192308863112
0.000190610214
0.000189035280563
0.000187567597619
0.000186192721488
0.000184897889563
0.000183671769854
0.000182504264217
0.00018138634472
0.000180309911904
0.000179267668871
0.000178253007864
0.000177259907413
0.000176282838707
0.000175316680374
0.000174356640921
0.000173398184582
0.000172436963547
0.00017146875706
0.00017048941158
0.000169494783228
0.000168480681424
0.000167442812678
0.000166376723527
0.000165277741627
0.000164140914072
0.000162960942106
0.000161732111578
0.00016044821884
0.000159102492332
0.000157687511081
0.000156195122784
0.000154616366461
0.000152941407995
0.000151159501492
0.000149258995423
0.000147227409505
0.000145051615086
0.000142718156281
0.000140213747485
0.000137525971709
0.000134644180566
0.000131560562474
0.000128271306437
0.000124777752182
0.000121087385398
0.000117214505725
0.000113180368394
0.000109012611684
0.000104743890403
0.000100409862263
9.60469277111e-05
9.16902135394e-05
8.73722042617e-05
8.31220845818e-05
7.89655738764e-05
7.49250412943e-05
7.10196991794e-05
6.72657298019e-05
6.36762889319e-05
6.02614000333e-05
5.70278021301e-05
5.39788379453e-05
5.11144667782e-05
4.84314599237e-05
4.59237910336e-05
4.35831844068e-05
4.13997487712e-05
3.93626138088e-05
3.74605001248e-05
3.56821802405e-05
3.40168164056e-05
3.24541825361e-05
3.09847897124e-05
2.95999386815e-05
2.82917215087e-05
2.70529906587e-05
2.58773092775e-05
2.47588923319e-05
2.36925449805e-05
2.26736021142e-05
2.1697871325e-05
2.07615804322e-05
1.98613299962e-05
1.89940508102e-05
1.81569661262e-05
1.73475582352e-05
1.65635389815e-05
1.58028237695e-05
1.50635086513e-05
1.43438501003e-05
1.36422471221e-05
1.2957225378e-05
1.2287423043e-05
1.16315781386e-05
1.0988517122e-05
1.0357144523e-05
9.73643345774e-06
9.12541685399e-06
8.52317925406e-06
7.9288490755e-06
7.34159124774e-06
6.76060017565e-06
6.1850930487e-06
5.61430358229e-06
5.0474763598e-06
4.4838619245e-06
3.92271241638e-06
3.36327609244e-06
2.80478458642e-06
2.24641449416e-06
1.68717542884e-06
1.12562238517e-06
5.59253781629e-07
7.53211112702e-08
0.00021674088703
0.000219297394088
0.000218821258417
0.000216265051146
0.000212977087181
0.000209651575301
0.000206553500625
0.000203744903132
0.000201211296342
0.000198917016614
0.000196825634348
0.000194905860024
0.000193132176118
0.000191483909761
0.000189944089757
0.000188498492226
0.000187134938789
0.00018584280685
0.000184612693027
0.000183436179371
0.000182305665791
0.000181214244277
0.000180155599335
0.000179123925145
0.000178113853655
0.000177120390261
0.000176138855011
0.000175164828826
0.000174194102236
0.000173222625291
0.000172246460349
0.000171261739057
0.000170264618164
0.000169251235755
0.000168217667107
0.000167159879406
0.000166073684474
0.000164954688617
0.000163798238615
0.000162599362878
0.000161352706776
0.000160052461315
0.000158692284637
0.000157265216514
0.000155763587211
0.000154178924181
0.000152501863359
0.000150722076855
0.000148828235752
0.000146808035683
0.000144648322505
0.000142335363511
0.000139855311505
0.000137194899451
0.000134342377912
0.000131288667288
0.000128028650181
0.00012456248717
0.000120896803775
0.000117045555171
0.000113030321731
0.000108879765834
0.000104628090781
0.000100312650523
9.59712415286e-05
9.16397578165e-05
8.73507470741e-05
8.31328991829e-05
7.90111157327e-05
7.50068556343e-05
7.11385016642e-05
6.74215798302e-05
6.38687772315e-05
6.04897906214e-05
5.72910957608e-05
5.42757530123e-05
5.144336028e-05
4.87902298893e-05
4.63098060546e-05
4.39932738841e-05
4.18302652432e-05
3.98095566254e-05
3.7919675788e-05
3.61493714284e-05
3.4487936489e-05
3.29254009857e-05
3.14526223623e-05
3.00613033707e-05
2.8743963554e-05
2.74938843672e-05
2.63050418942e-05
2.51720361833e-05
2.40900225283e-05
2.30546475642e-05
2.20619914279e-05
2.11085163105e-05
2.01910211682e-05
1.93066021163e-05
1.84526178953e-05
1.76266598021e-05
1.68265254846e-05
1.60501960701e-05
1.52958161349e-05
1.45616761032e-05
1.38461966987e-05
1.31479151363e-05
1.24654727711e-05
1.17976039687e-05
1.11431259799e-05
1.05009296349e-05
9.86997068845e-06
9.24926166439e-06
8.63786406369e-06
8.03488081536e-06
7.43944886256e-06
6.85073179511e-06
6.26791244608e-06
5.69018535693e-06
5.11674891576e-06
4.54679665479e-06
3.97950631078e-06
3.41402302875e-06
2.84942783005e-06
2.28467096005e-06
1.71842807115e-06
1.148809921e-06
5.7286685749e-07
7.86859540476e-08
0.000209551487011
0.000212216302882
0.00021254862977
0.000211035192324
0.000208678899514
0.000206094823504
0.00020357540664
0.000201227786735
0.000199072593478
0.000197096730862
0.000195277395569
0.000193591617703
0.00019201933698
0.000190543879498
0.00018915154202
0.000187830978191
0.000186572636048
0.000185368312896
0.000184210825202
0.000183093770818
0.000182011358914
0.000180958287147
0.000179929650776
0.000178920872957
0.000177927648952
0.000176945899395
0.000175971729493
0.00017500139358
0.000174031259549
0.000173057774699
0.000172077433333
0.000171086746494
0.000170082209829
0.000169060270723
0.000168017294114
0.000166949526284
0.00016585305588
0.000164723771243
0.000163557313026
0.000162349020909
0.000161093873098
0.000159786417222
0.000158420691328
0.000156990134025
0.00015548748373
0.000153904668753
0.000152232693142
0.000150461528446
0.000148580029567
0.000146575903725
0.000144435774888
0.000142145398625
0.000139690089217
0.000137055413776
0.000134228180453
0.000131197699351
0.0001279572375
0.000124505541072
0.00012084826277
0.000116999083895
0.000112980230074
0.000108821995252
0.000104560981835
0.000100237185781
9.58906468474e-05
9.15586420569e-05
8.72741558271e-05
8.30655890753e-05
7.89571502101e-05
7.49694934013e-05
7.11202920521e-05
6.74245594407e-05
6.38946685332e-05
6.05401294656e-05
5.73672503591e-05
5.43788330996e-05
5.15740493459e-05
4.89485985028e-05
4.64951697231e-05
4.42041409689e-05
4.2064388548e-05
4.00640716234e-05
3.81912905615e-05
3.64345705318e-05
3.47831688212e-05
3.32272337162e-05
3.17578541533e-05
3.03670380634e-05
2.90476499795e-05
2.77933296005e-05
2.65984052521e-05
2.54578102731e-05
2.43670064181e-05
2.33219158495e-05
2.23188619112e-05
2.13545181068e-05
2.0425864416e-05
1.95301499647e-05
1.86648611238e-05
1.78276941775e-05
1.70165318273e-05
1.62294228906e-05
1.54645646637e-05
1.4720287492e-05
1.39950411759e-05
1.32873828888e-05
1.25959663423e-05
1.19195319661e-05
1.12568979072e-05
1.06069516725e-05
9.96864225926e-06
9.34097263444e-06
8.72299242612e-06
8.11379070297e-06
7.51248870567e-06
6.91823238621e-06
6.33018455311e-06
5.74751631887e-06
5.16939727334e-06
4.59498324966e-06
4.02339930054e-06
3.45371293715e-06
2.8848874963e-06
2.31569606226e-06
1.74456231159e-06
1.16928470754e-06
5.86626399961e-07
8.40038099413e-08
0.000203915808816
0.000206529907647
0.000207343729209
0.0002065647758
0.000204924597872
0.000202940308666
0.000200899947461
0.000198935650323
0.000197094064028
0.000195381428487
0.00019378765596
0.000192297775194
0.000190896789942
0.000189571401765
0.000188310360544
0.000187104283598
0.000185945319569
0.000184826811114
0.000183743009308
0.000182688849516
0.000181659782139
0.000180651647039
0.000179660580676
0.00017868294681
0.000177715283723
0.000176754262767
0.000175796654429
0.0001748393016
0.000173879091813
0.000172912931661
0.000171937724038
0.000170950345807
0.000169947623907
0.000168926310314
0.000167883055243
0.000166814377936
0.000165716634235
0.000164585980013
0.000163418329311
0.000162209305782
0.000160954185803
0.000159647831297
0.000158284610136
0.000156858302019
0.000155361988178
0.000153787924632
0.000152127401624
0.000150370597176
0.00014850644156
0.000146522522647
0.000144405079363
0.000142139149289
0.00013970894993
0.000137098570682
0.000134293022498
0.000131279632444
0.00012804969734
0.000124600255037
0.000120935804144
0.000117069756866
0.000113025271352
0.000108834917472
0.000104538661321
0.000100180227903
9.58028350173e-05
9.14457457981e-05
8.71426645226e-05
8.29217944662e-05
7.88066740804e-05
7.48171842392e-05
7.09703662644e-05
6.7280850746e-05
6.37608598726e-05
6.04198790089e-05
5.72641696516e-05
5.42963193185e-05
5.15150169955e-05
4.89151903988e-05
4.64885345316e-05
4.4224338276e-05
4.21104366004e-05
4.01341108807e-05
3.82828137866e-05
3.65446691816e-05
3.49087581303e-05
3.33652356184e-05
3.19053314972e-05
3.05212830321e-05
2.92062343427e-05
2.79541258342e-05
2.67595869795e-05
2.56178390879e-05
2.45246105037e-05
2.34760643453e-05
2.24687377322e-05
2.14994910094e-05
2.05654654e-05
1.96640476396e-05
1.87928403284e-05
1.79496369428e-05
1.71324006277e-05
1.63392460609e-05
1.5568423807e-05
1.48183066974e-05
1.40873778476e-05
1.33742200103e-05
1.26775059954e-05
1.19959899534e-05
1.13284993277e-05
1.06739273273e-05
1.00312257658e-05
9.39939814378e-06
8.7774928321e-06
8.16459622605e-06
7.5598256965e-06
6.96232213266e-06
6.37124174809e-06
5.78574664327e-06
5.20499321003e-06
4.62811674227e-06
4.05420918424e-06
3.48228435518e-06
2.91122038741e-06
2.33966202385e-06
1.76585728342e-06
1.1874023332e-06
6.00894683765e-07
9.14901782024e-08
0.000199398065622
0.000201894612608
0.000202989554002
0.000202727804632
0.000201637831422
0.000200140600256
0.00019850169395
0.000196862723609
0.000195287512113
0.000193797633571
0.000192394254969
0.000191070000032
0.000189814833129
0.000188618708619
0.000187472590777
0.000186368707655
0.0001853004781
0.00018426232426
0.000183249465766
0.000182257734456
0.000181283421477
0.000180323156744
0.000179373816234
0.000178432451436
0.000177496235666
0.000176562422777
0.000175628314641
0.000174691237053
0.000173748515609
0.000172797453009
0.000171835312073
0.000170859297596
0.000169866537489
0.000168854062774
0.000167818785822
0.000166757476111
0.000165666732675
0.00016454295224
0.00016338229178
0.00016218062391
0.000160933483094
0.000159636000202
0.000158282822429
0.000156868015216
0.000155384942783
0.000153826124682
0.000152183068126
0.00015044608104
0.000148604080209
0.000146644424309
0.000144552823628
0.000142313404622
0.000139909030585
0.000137321984546
0.000134535088993
0.000131533261361
0.000128305406916
0.000124846483884
0.000121159567873
0.000117257720878
0.000113165278259
0.000108917791914
0.000104559743564
0.000100139913698
9.5705793831e-05
9.12992456795e-05
8.69548775175e-05
8.27006650217e-05
7.8559402501e-05
7.45501647332e-05
7.06894082456e-05
6.69915124125e-05
6.34687347037e-05
6.01307295825e-05
5.69838636324e-05
5.40305729318e-05
5.12690058796e-05
4.86931366835e-05
4.62933901599e-05
4.40576458199e-05
4.19723827728e-05
4.00237304403e-05
3.81982744743e-05
3.64835714323e-05
3.48684033736e-05
3.33428401159e-05
3.18981807805e-05
3.05268328101e-05
2.92221684278e-05
2.79783823217e-05
2.67903626035e-05
2.56535796138e-05
2.45639929719e-05
2.35179752162e-05
2.25122496332e-05
2.15438397721e-05
2.06100283908e-05
1.97083239043e-05
1.88364327766e-05
1.79922365961e-05
1.71737728567e-05
1.63792186621e-05
1.56068767567e-05
1.48551634004e-05
1.41225977176e-05
1.34077922158e-05
1.27094442372e-05
1.20263281413e-05
1.13572880526e-05
1.07012310295e-05
1.00571205206e-05
9.42396998249e-06
8.80083652375e-06
8.18681442242e-06
7.58102831603e-06
6.98262578562e-06
6.39076890252e-06
5.80462404544e-06
5.22334881813e-06
4.64607406959e-06
4.07187756135e-06
3.49974339932e-06
2.92849754729e-06
2.35670473215e-06
1.78250790826e-06
1.20339474604e-06
6.15896688113e-07
1.01276821973e-07
0.000195714965519
0.000198070558485
0.000199322703548
0.000199424578927
0.000198756660543
0.000197654852845
0.000196354002587
0.000194994436492
0.000193649584099
0.00019235219954
0.000191112800369
0.000189930891935
0.000188801206249
0.00018771692092
0.000186671185097
0.000185657749557
0.000184671149355
0.000183706679979
0.000182760291276
0.000181828459995
0.00018090806849
0.000179996300077
0.000179090553348
0.000178188374004
0.000177287401447
0.000176385327122
0.000175479862161
0.000174568712812
0.00017364955792
0.000172720026679
0.000171777684094
0.000170820014798
0.000169844406799
0.000168848134353
0.000167828339274
0.000166782009927
0.000165705957029
0.000164596785194
0.000163450858857
0.0001622642608
0.000161032740958
0.00015975165251
0.00015841587143
0.000157019694865
0.000155556713046
0.000154019649504
0.000152400165919
0.000150688632504
0.000148873874512
0.000146942922899
0.000144880824284
0.000142670601312
0.000140293490775
0.00013772960401
0.000134959123227
0.000131964050128
0.000128730386986
0.000125250543167
0.000121525790999
0.000117568642397
0.000113404783754
0.000109073534046
0.00010462532275
0.000100115686146
9.55977404378e-05
9.11165782403e-05
8.67077664389e-05
8.23988857537e-05
7.82118189586e-05
7.41647481328e-05
7.02735759328e-05
6.65525803924e-05
6.30142787341e-05
5.96687315488e-05
5.65225989415e-05
5.35782461814e-05
5.08332103801e-05
4.82802857995e-05
4.59082865203e-05
4.37032966576e-05
4.16500735663e-05
3.9733290458e-05
3.79384365539e-05
3.62523393447e-05
3.46633712922e-05
3.31614403642e-05
3.17378584095e-05
3.03851574391e-05
2.9096897793e-05
2.78674915295e-05
2.66920506528e-05
2.55662619202e-05
2.44862860476e-05
2.34486776323e-05
2.24503218798e-05
2.14883845947e-05
2.05602724642e-05
1.96636012669e-05
1.87961701515e-05
1.79559405763e-05
1.71410188256e-05
1.63496412973e-05
1.55801619339e-05
1.48310413356e-05
1.41008371844e-05
1.33881957074e-05
1.26918439473e-05
1.20105826702e-05
1.13432797517e-05
1.06888639198e-05
1.00463187239e-05
9.41467661745e-06
8.79301300781e-06
8.18044011417e-06
7.57610039345e-06
6.97915920766e-06
6.3887962029e-06
5.80419458181e-06
5.2245269119e-06
4.64893527234e-06
4.07650213011e-06
3.50620621174e-06
2.93685461799e-06
2.36697907234e-06
1.79468240832e-06
1.21742569905e-06
6.31761322533e-07
1.13421494798e-07
0.000192675241522
0.000194886417489
0.000196218420205
0.000196574956438
0.000196230132763
0.000195448730708
0.000194432742162
0.000193314495851
0.000192171124469
0.00019104274047
0.000189947136385
0.000188889731854
0.000187869656144
0.0001868832129
0.000185925732727
0.00018499249164
0.00018407911368
0.000183181702429
0.000182296839202
0.000181421522807
0.000180553089943
0.00017968913538
0.000178827440297
0.000177965911521
0.000177102531614
0.000176235318542
0.000175362294469
0.000174481460197
0.000173590772766
0.000172688124052
0.000171771326118
0.000170838095838
0.000169886039704
0.000168912638031
0.000167915227869
0.000166890983824
0.000165836895914
0.000164749743347
0.000163626062776
0.000162462109126
0.000161253806387
0.00015999668491
0.000158685800593
0.000157315630028
0.000155879934362
0.000154371583684
0.000152782334244
0.000151102554237
0.0001493209032
0.000147423988935
0.000145396058395
0.000143218826275
0.000140871599558
0.00013833189306
0.000135576706268
0.000132584505917
0.000129337759472
0.000125825735653
0.00012204738236
0.00011801429241
0.00011375354839
0.000109309103154
0.000104739171799
0.000100108320167
9.54770295188e-05
9.08942686527e-05
8.63964266993e-05
8.20103648621e-05
7.77568070729e-05
7.36529168278e-05
6.97140725251e-05
6.59546389871e-05
6.23876723933e-05
5.90239287049e-05
5.58705903901e-05
5.293004654e-05
5.01991232418e-05
4.76691344133e-05
4.53268422837e-05
4.31560499475e-05
4.11393500686e-05
3.92596089608e-05
3.75009707684e-05
3.58493714507e-05
3.42926724907e-05
3.2820556274e-05
3.14243040748e-05
3.00965388901e-05
2.88309796523e-05
2.76222278869e-05
2.6465592593e-05
2.53569512624e-05
2.42926417428e-05
2.32693789317e-05
2.2284190776e-05
2.13343689472e-05
2.04174305421e-05
1.9531088001e-05
1.86732251525e-05
1.78418778265e-05
1.70352178969e-05
1.62515399114e-05
1.54892496952e-05