/*--------------------------------*- C++ -*----------------------------------*\
  =========                 |
  \\      /  F ield         | OpenFOAM: The Open Source CFD Toolbox
   \\    /   O peration     | Website:  https://openfoam.org
    \\  /    A nd           | Version:  7
     \\/     M anipulation  |
\*---------------------------------------------------------------------------*/
FoamFile
{
    version     2.0;
    format      ascii;
    class       volVectorField;
    location    "2940";
    object      U;
}
// * * * * * * * * * * * * * * * * * * * * * * * * * * * * * * * * * * * * * //

dimensions      [0 1 -1 0 0 0 0];

internalField   nonuniform List<vector> 
8192
(
(0.00104348308297 0.00015651691703 0)
(0.000759388720773 0.000127577443297 0)
(0.000549420842459 8.23904311493e-05 0)
(0.000414164480874 5.28659263058e-05 0)
(0.000326312593268 3.49859568262e-05 0)
(0.000267218709924 2.41079217563e-05 0)
(0.000225823451387 1.7287331939e-05 0)
(0.000195694714084 1.28414005765e-05 0)
(0.000173028940854 9.82436798884e-06 0)
(0.000155506775709 7.69779265877e-06 0)
(0.000141661919588 6.14705916392e-06 0)
(0.000130532497239 4.98235911682e-06 0)
(0.000121464932005 4.08520229975e-06 0)
(0.000114000662591 3.37906357321e-06 0)
(0.000107808702151 2.81289362063e-06 0)
(0.000102644206009 2.35159959068e-06 0)
(9.83222158122e-05 1.97038800817e-06 0)
(9.47005219126e-05 1.65130364341e-06 0)
(9.16681652292e-05 1.38105115618e-06 0)
(8.91375257599e-05 1.14958680805e-06 0)
(8.70387530148e-05 9.49184821139e-07 0)
(8.5315763633e-05 7.73803844472e-07 0)
(8.39233118198e-05 6.18647658198e-07 0)
(8.2824809784e-05 4.7985447928e-07 0)
(8.19906827226e-05 3.54273097434e-07 0)
(8.13971116938e-05 2.3929886201e-07 0)
(8.10250625909e-05 1.32751584177e-07 0)
(8.08595293439e-05 3.27834163322e-08 0)
(8.08889396372e-05 -6.21915527897e-08 0)
(8.11046849581e-05 -1.5355121335e-07 0)
(8.15007462544e-05 -2.42507139828e-07 0)
(8.20733940378e-05 -3.30137319213e-07 0)
(8.2820946176e-05 -4.17411123427e-07 0)
(8.37435689701e-05 -5.05207610314e-07 0)
(8.48431090426e-05 -5.9432804478e-07 0)
(8.6122944689e-05 -6.85502829916e-07 0)
(8.75878454972e-05 -7.79392854967e-07 0)
(8.92438285337e-05 -8.76584703315e-07 0)
(9.1097998157e-05 -9.77579082015e-07 0)
(9.3158354773e-05 -1.08277132516e-06 0)
(9.54335555532e-05 -1.19242286254e-06 0)
(9.79326076179e-05 -1.30662220761e-06 0)
(0.000100664471645 -1.42523440451e-06 0)
(0.000103637551973 -1.54783806444e-06 0)
(0.000106859048709 -1.6736503516e-06 0)
(0.000110334149488 -1.80144162389e-06 0)
(0.000114065044598 -1.92944418795e-06 0)
(0.000118049761284 -2.05526269503e-06 0)
(0.000122280832428 -2.17579814409e-06 0)
(0.00012674384295 -2.2872015828e-06 0)
(0.000131415933556 -2.38487776346e-06 0)
(0.000136264383607 -2.46356060355e-06 0)
(0.000141245437324 -2.51748106934e-06 0)
(0.000146303572031 -2.54064131815e-06 0)
(0.000151371423165 -2.52719733551e-06 0)
(0.000156370567966 -2.4719349693e-06 0)
(0.000161213319549 -2.37080428647e-06 0)
(0.000165805591326 -2.2214555503e-06 0)
(0.000170050759858 -2.02370169011e-06 0)
(0.000173854292341 -1.77982044117e-06 0)
(0.000177128735774 -1.49461390253e-06 0)
(0.000179798528751 -1.17517158109e-06 0)
(0.000181804046209 -8.30340307145e-07 0)
(0.000183104367615 -4.69977747512e-07 0)
(0.0001836784756 -1.04129339944e-07 0)
(0.000183524891079 2.57712159537e-07 0)
(0.000182660037951 6.07136626437e-07 0)
(0.000181115808228 9.37086184597e-07 0)
(0.00017893681112 1.24190161048e-06 0)
(0.000176177679953 1.5172180915e-06 0)
(0.000172900649551 1.7597989965e-06 0)
(0.000169173453774 1.96738194537e-06 0)
(0.000165067476577 2.13857923272e-06 0)
(0.000160656039402 2.27284106511e-06 0)
(0.000156012718526 2.37046238237e-06 0)
(0.000151209639441 2.43259899594e-06 0)
(0.000146315766612 2.46125608783e-06 0)
(0.000141395271028 2.45922190867e-06 0)
(0.000136506095743 2.42993610067e-06 0)
(0.00013169884158 2.37730120807e-06 0)
(0.000127016063732 2.30546028338e-06 0)
(0.00012249201699 2.2185706346e-06 0)
(0.000118152829418 2.12060165807e-06 0)
(0.000114017036076 2.01517693762e-06 0)
(0.000110096375134 1.90546976401e-06 0)
(0.00010639674003 1.79415156583e-06 0)
(0.000102919189729 1.68338538619e-06 0)
(9.96609381657e-05 1.57485320733e-06 0)
(9.66162672624e-05 1.46980506248e-06 0)
(9.37773303617e-05 1.36911950082e-06 0)
(9.11348316924e-05 1.273367096e-06 0)
(8.86785813108e-05 1.1828714508e-06 0)
(8.6397934047e-05 1.09776419995e-06 0)
(8.42821259739e-05 1.01803246994e-06 0)
(8.2320524003e-05 9.43558307011e-07 0)
(8.05028041771e-05 8.74150536183e-07 0)
(7.88190730998e-05 8.09569781e-07 0)
(7.72599450904e-05 7.49547702783e-07 0)
(7.58165857109e-05 6.93801404335e-07 0)
(7.44807303047e-05 6.42043999956e-07 0)
(7.32446844663e-05 5.93992128842e-07 0)
(7.21013117747e-05 5.49371163621e-07 0)
(7.1044012889e-05 5.07918654456e-07 0)
(7.0066698998e-05 4.69386516618e-07 0)
(6.91637618147e-05 4.33542312288e-07 0)
(6.83300415683e-05 4.00169957194e-07 0)
(6.75607939394e-05 3.69070085644e-07 0)
(6.68516563653e-05 3.40060300357e-07 0)
(6.61986137889e-05 3.12975493637e-07 0)
(6.55979634888e-05 2.87668431966e-07 0)
(6.50462782785e-05 2.640108144e-07 0)
(6.45403668655e-05 2.41895042489e-07 0)
(6.40772296409e-05 2.2123703165e-07 0)
(6.36540073812e-05 2.01980475934e-07 0)
(6.32679193471e-05 1.84103197936e-07 0)
(6.29161857199e-05 1.67626449565e-07 0)
(6.25959271185e-05 1.52628542579e-07 0)
(6.23040304509e-05 1.392648723e-07 0)
(6.20369649343e-05 1.27797736444e-07 0)
(6.1790523173e-05 1.18641449411e-07 0)
(6.15594473626e-05 1.12432110892e-07 0)
(6.13368756491e-05 1.1013767626e-07 0)
(6.11135025113e-05 1.13233869206e-07 0)
(6.08762862266e-05 1.2398117796e-07 0)
(6.06064819094e-05 1.45822283315e-07 0)
(6.02769549514e-05 1.83704207968e-07 0)
(5.98502088041e-05 2.43041775556e-07 0)
(5.92953594601e-05 3.11807584001e-07 0)
(0.00121019437848 0.000302839454049 0)
(0.00116038080824 0.00031516283123 0)
(0.00102703770956 0.000238116007905 0)
(0.000887610058502 0.000171824349007 0)
(0.000766910896012 0.000124578570113 0)
(0.000668417412107 9.21026610407e-05 0)
(0.000589433180756 6.96720678089e-05 0)
(0.000526141238035 5.3877330247e-05 0)
(0.000475112892195 4.24825433221e-05 0)
(0.000433619581942 3.40550791925e-05 0)
(0.000399580382667 2.76738151174e-05 0)
(0.000371427986881 2.27374090951e-05 0)
(0.000347980573069 1.88451199343e-05 0)
(0.000328340205673 1.57237721538e-05 0)
(0.000311817510275 1.31828311773e-05 0)
(0.000297877241654 1.10864180496e-05 0)
(0.000286099218585 9.3355750677e-06 0)
(0.000276150213128 7.85680924345e-06 0)
(0.000267763567379 6.59454237935e-06 0)
(0.00026072426176 5.50603619038e-06 0)
(0.000254857851608 4.55791500666e-06 0)
(0.00025002217348 3.72373901703e-06 0)
(0.000246101055885 2.98228093542e-06 0)
(0.000242999497436 2.31628193239e-06 0)
(0.000240639932008 1.71153958429e-06 0)
(0.000238959308503 1.15622956153e-06 0)
(0.000237906787865 6.40394466804e-07 0)
(0.000237441912539 1.55554124016e-07 0)
(0.000237533140559 -3.05594405538e-07 0)
(0.000238156662272 -7.49408098864e-07 0)
(0.000239295436487 -1.18147737285e-06 0)
(0.000240938397254 -1.60676617373e-06 0)
(0.000243079791173 -2.02971782287e-06 0)
(0.000245718610474 -2.45433148735e-06 0)
(0.000248858091082 -2.8842123357e-06 0)
(0.000252505246862 -3.3225964685e-06 0)
(0.000256670411508 -3.77235019619e-06 0)
(0.000261366758425 -4.23594185247e-06 0)
(0.000266609766558 -4.71538322158e-06 0)
(0.000272416596934 -5.21213667011e-06 0)
(0.000278805340778 -5.72698355396e-06 0)
(0.000285794096347 -6.25984942752e-06 0)
(0.000293399828669 -6.80958261572e-06 0)
(0.000301636965714 -7.37368504795e-06 0)
(0.000310515687874 -7.94799876661e-06 0)
(0.00032003987732 -8.5263585553e-06 0)
(0.000330204712738 -9.10023148473e-06 0)
(0.00034099392602 -9.65837762024e-06 0)
(0.000352376783116 -1.01865822679e-05 0)
(0.000364304912341 -1.06675266052e-05 0)
(0.000376709177994 -1.10808770697e-05 0)
(0.000389496878696 -1.14036789172e-05 0)
(0.000402549626717 -1.16111303573e-05 0)
(0.000415722320034 -1.16777851895e-05 0)
(0.000428843632878 -1.157918222e-05 0)
(0.000441718404113 -1.12938310126e-05 0)
(0.000454132181883 -1.08054031957e-05 0)
(0.000465857983165 -1.01048967127e-05 0)
(0.000476665056001 -9.19247114351e-06 0)
(0.000486329114929 -8.07861478912e-06 0)
(0.0004946432035 -6.78432806427e-06 0)
(0.00050142809616 -5.34012464848e-06 0)
(0.000506541077114 -3.78387324295e-06 0)
(0.000509882101103 -2.15778456206e-06 0)
(0.000511396754743 -5.05085813406e-07 0)
(0.000511075998771 1.1329999025e-06 0)
(0.000508953209375 2.71947468873e-06 0)
(0.000505099379562 4.22278381823e-06 0)
(0.000499617397325 5.61715299531e-06 0)
(0.000492636145568 6.88231364082e-06 0)
(0.000484304888143 8.00295055862e-06 0)
(0.000474788114334 8.9681555051e-06 0)
(0.000464260796236 9.77105372265e-06 0)
(0.000452903908046 1.04086428266e-05 0)
(0.00044090006046 1.08817789365e-05 0)
(0.000428429187058 1.11951844753e-05 0)
(0.000415664339108 1.13573412421e-05 0)
(0.000402767755319 1.13801667762e-05 0)
(0.000389887438009 1.12784356334e-05 0)
(0.000377154468327 1.10689787219e-05 0)
(0.00036468123349 1.07697501953e-05 0)
(0.000352560638905 1.03988783741e-05 0)
(0.000340866267075 9.97381121e-06 0)
(0.000329653350429 9.51063675626e-06 0)
(0.000318960364103 9.0236179812e-06 0)
(0.000308811021944 8.52494263323e-06 0)
(0.000299216469354 8.0246603539e-06 0)
(0.000290177499206 7.53076408275e-06 0)
(0.000281686660375 7.04936892055e-06 0)
(0.00027373017267 6.58494600784e-06 0)
(0.000266289601069 6.14057729775e-06 0)
(0.000259343272911 5.71820684315e-06 0)
(0.000252867443658 5.31887295935e-06 0)
(0.000246837230734 4.94291290614e-06 0)
(0.000241227342485 4.59013686217e-06 0)
(0.000236012632101 4.25997155351e-06 0)
(0.000231168506071 3.95157586719e-06 0)
(0.000226671214452 3.66393191751e-06 0)
(0.000222498047144 3.39591528479e-06 0)
(0.000218627456718 3.14634815098e-06 0)
(0.000215039124933 2.9140386546e-06 0)
(0.000211713986783 2.69780944261e-06 0)
(0.000208634223097 2.49651787915e-06 0)
(0.000205783230206 2.30907002071e-06 0)
(0.000203145573166 2.13443003934e-06 0)
(0.000200706927217 1.97162653033e-06 0)
(0.000198454010736 1.81975685418e-06 0)
(0.000196374511679 1.67799054085e-06 0)
(0.000194457008408 1.54557264139e-06 0)
(0.000192690884787 1.42182791248e-06 0)
(0.000191066238481 1.30616672462e-06 0)
(0.000189573780332 1.19809372618e-06 0)
(0.000188204721593 1.09722048821e-06 0)
(0.000186950644462 1.00328370834e-06 0)
(0.000185803349808 9.16171049779e-07 0)
(0.000184754674052 8.35957442176e-07 0)
(0.000183796264937 7.62955759063e-07 0)
(0.000182919303388 6.97787362133e-07 0)
(0.000182114156329 6.4148027721e-07 0)
(0.000181369944533 5.95605860827e-07 0)
(0.00018067401382 5.62468546004e-07 0)
(0.000180011316473 5.45365559814e-07 0)
(0.000179363765913 5.48925897397e-07 0)
(0.000178709780692 5.79487842128e-07 0)
(0.000178024638819 6.45259949383e-07 0)
(0.000177283278764 7.55152563799e-07 0)
(0.000176470225056 9.11392989202e-07 0)
(0.000175599936674 1.068594212e-06 0)
(0.00122478428032 0.000267860791726 0)
(0.00124106264872 0.000383676682728 0)
(0.00119606341784 0.00034794446729 0)
(0.00111311002576 0.000284376913279 0)
(0.00101982172989 0.000226013443955 0)
(0.000929905126156 0.000179077854174 0)
(0.000848799014827 0.000142787196768 0)
(0.000777906258109 0.000114946880523 0)
(0.000716866103619 9.3481473735e-05 0)
(0.000664659338148 7.67562055593e-05 0)
(0.000620112171639 6.35590363933e-05 0)
(0.00058210762804 5.30091099638e-05 0)
(0.000549660649351 4.44677953117e-05 0)
(0.000521932866127 3.74692322104e-05 0)
(0.00049822288164 3.16700369603e-05 0)
(0.000477948420299 2.68139293975e-05 0)
(0.00046062741603 2.27070795016e-05 0)
(0.000445860807356 1.92009087209e-05 0)
(0.000433317871597 1.61800155731e-05 0)
(0.000422724113055 1.35536197524e-05 0)
(0.000413851415489 1.12494332197e-05 0)
(0.00040651009149 9.20921847933e-06 0)
(0.000400542476653 7.38553096236e-06 0)
(0.000395817764239 5.73930134359e-06 0)
(0.00039222782963 4.23802030176e-06 0)
(0.000389683843029 2.85436055148e-06 0)
(0.000388113510106 1.56512012987e-06 0)
(0.00038745881348 3.50404974725e-07 0)
(0.000387674153868 -8.07007667698e-07 0)
(0.000388724808861 -1.92216414416e-06 0)
(0.000390585643124 -3.00832104472e-06 0)
(0.000393240016115 -4.07724617373e-06 0)
(0.000396678839932 -5.13944418776e-06 0)
(0.00040089974475 -6.20431661499e-06 0)
(0.000405906312686 -7.28026189781e-06 0)
(0.000411707342223 -8.37471715263e-06 0)
(0.000418316104779 -9.49414043344e-06 0)
(0.00042574955322 -1.06439294627e-05 0)
(0.000434027439045 -1.18282708055e-05 0)
(0.000443171291306 -1.30499116563e-05 0)
(0.000453203206256 -1.43098459336e-05 0)
(0.000464144393405 -1.56069068995e-05 0)
(0.000476013422012 -1.69372616843e-05 0)
(0.000488824113969 -1.82938089822e-05 0)
(0.000502583036583 -1.96654919118e-05 0)
(0.000517286565003 -2.10365538019e-05 0)
(0.000532917511976 -2.23857873164e-05 0)
(0.00054944136582 -2.36858557239e-05 0)
(0.000566802238126 -2.49027984912e-05 0)
(0.0005849187016 -2.59958661614e-05 0)
(0.000603679792171 -2.69178550712e-05 0)
(0.000622941549738 -2.76161189337e-05 0)
(0.000642524563654 -2.8034410699e-05 0)
(0.000662213051141 -2.81156431033e-05 0)
(0.000681756004538 -2.78055475213e-05 0)
(0.000700870873482 -2.70570630117e-05 0)
(0.000719250084675 -2.5835118219e-05 0)
(0.000736570441732 -2.4121299965e-05 0)
(0.000752505102321 -2.19177642171e-05 0)
(0.000766737430361 -1.92496757471e-05 0)
(0.000778975623091 -1.61655208965e-05 0)
(0.000788966705871 -1.2734886418e-05 0)
(0.000796508387402 -9.04376093094e-06 0)
(0.000801457475356 -5.18800452075e-06 0)
(0.000803734081406 -1.26613058115e-06 0)
(0.00080332157102 2.62729644897e-06 0)
(0.00080026291011 6.4066045374e-06 0)
(0.000794654501869 9.99785937682e-06 0)
(0.000786638681905 1.33398391667e-05 0)
(0.000776395825061 1.6383688894e-05 0)
(0.000764136666756 1.90919383907e-05 0)
(0.000750095082959 2.14374684214e-05 0)
(0.000734521307146 2.34027748679e-05 0)
(0.000717675433941 2.49796213706e-05 0)
(0.000699821063376 2.61689560021e-05 0)
(0.000681219040189 2.69808414971e-05 0)
(0.000662121386453 2.74341241709e-05 0)
(0.00064276565784 2.75556358363e-05 0)
(0.000623370029479 2.73788535539e-05 0)
(0.000604129413337 2.69420899061e-05 0)
(0.000585212828872 2.62864036888e-05 0)
(0.000566762118383 2.5453477435e-05 0)
(0.000548891955403 2.44836964809e-05 0)
(0.000531690972758 2.34146022121e-05 0)
(0.000515223758189 2.22798066065e-05 0)
(0.000499533435051 2.11083740551e-05 0)
(0.000484644556987 1.99246157173e-05 0)
(0.000470566085024 1.87482081611e-05 0)
(0.000457294269043 1.75945380269e-05 0)
(0.000444815311095 1.64751818307e-05 0)
(0.000433107737993 1.53984462538e-05 0)
(0.00042214445088 1.43699139586e-05 0)
(0.000411894449209 1.339295825e-05 0)
(0.00040232424646 1.24692054372e-05 0)
(0.000393399006727 1.15989351422e-05 0)
(0.000385083436972 1.07814169529e-05 0)
(0.000377342471094 1.00151866825e-05 0)
(0.00037014178053 9.29826841659e-06 0)
(0.000363448143048 8.62834960745e-06 0)
(0.000357229697525 8.00291678336e-06 0)
(0.000351456108461 7.41935892962e-06 0)
(0.000346098659988 6.87504497055e-06 0)
(0.000341130295531 6.36738086867e-06 0)
(0.000336525615982 5.89385109717e-06 0)
(0.000332260846489 5.45204842782e-06 0)
(0.000328313779482 5.03969537829e-06 0)
(0.000324663699528 4.6546601042e-06 0)
(0.000321291293784 4.29496915703e-06 0)
(0.000318178550316 3.95881924948e-06 0)
(0.000315308645105 3.64459004244e-06 0)
(0.000312665817364 3.35085996486e-06 0)
(0.000310235231531 3.07642719302e-06 0)
(0.000308002823191 2.82033820441e-06 0)
(0.000305955125058 2.58192670935e-06 0)
(0.000304079068152 2.36086637449e-06 0)
(0.000302361752641 2.15724142022e-06 0)
(0.00030079018278 1.97164001558e-06 0)
(0.000299350961891 1.8052759808e-06 0)
(0.000298029947869 1.66014431433e-06 0)
(0.000296811880421 1.53921375424e-06 0)
(0.000295680014022 1.44665155521e-06 0)
(0.000294615836744 1.38805209043e-06 0)
(0.000293599045571 1.37057717397e-06 0)
(0.000292608120908 1.4027436966e-06 0)
(0.000291622148378 1.49311680809e-06 0)
(0.000290625025127 1.64577818574e-06 0)
(0.000289612970474 1.84587554827e-06 0)
(0.000288600166512 2.01720416537e-06 0)
(0.00122190616421 0.00022117034295 0)
(0.00125327007459 0.000382724837667 0)
(0.00125072992642 0.000396435669785 0)
(0.00121271361152 0.000356855395854 0)
(0.00115424716517 0.000305289681087 0)
(0.00108774172353 0.00025622363953 0)
(0.00102067997977 0.000213809243685 0)
(0.000957031686207 0.000178465861414 0)
(0.000898629998695 0.000149404312872 0)
(0.000846101375419 0.000125568733812 0)
(0.000799430103582 0.000105964925841 0)
(0.000758284364585 8.97534832684e-05 0)
(0.000722198087627 7.62566586913e-05 0)
(0.000690668828556 6.49373931215e-05 0)
(0.000663207927562 5.53727445547e-05 0)
(0.000639364112041 4.72294827854e-05 0)
(0.000618732673473 4.02439542297e-05 0)
(0.000600957070792 3.42062318403e-05 0)
(0.000585726778861 2.89479078956e-05 0)
(0.000572773474224 2.43327796682e-05 0)
(0.000561866676369 2.02497591198e-05 0)
(0.00055280941842 1.6607466286e-05 0)
(0.000545434220514 1.33300890387e-05 0)
(0.000539599476113 1.03541946098e-05 0)
(0.000535186275566 7.62625810642e-06 0)
(0.000532095648043 5.10073416531e-06 0)
(0.000530246183196 2.73854294319e-06 0)
(0.000529571986423 5.05875555901e-07 0)
(0.000530020920475 -1.62675138841e-06 0)
(0.000531553086526 -3.68523889485e-06 0)
(0.00053413950259 -5.69249281541e-06 0)
(0.00053776094043 -7.66888023517e-06 0)
(0.000542406881396 -9.63256875728e-06 0)
(0.000548074553301 -1.15997614924e-05 0)
(0.000554768010966 -1.35848342496e-05 0)
(0.000562497221948 -1.56003758649e-05 0)
(0.00057127711687 -1.76571286652e-05 0)
(0.000581126560772 -1.97638219424e-05 0)
(0.00059206719816 -2.19268887811e-05 0)
(0.000604122120337 -2.41500541808e-05 0)
(0.00061731429969 -2.6433782528e-05 0)
(0.000631664732825 -2.87745740702e-05 0)
(0.000647190233943 -3.11641062885e-05 0)
(0.00066390082359 -3.35882264896e-05 0)
(0.00068179666811 -3.6025820398e-05 0)
(0.000700864544917 -3.84476076408e-05 0)
(0.000721073841331 -4.08149521105e-05 0)
(0.000742372143924 -4.30788206805e-05 0)
(0.000764680543556 -4.51790768084e-05 0)
(0.000787888869487 -4.70443465982e-05 0)
(0.000811851170733 -4.85927338596e-05 0)
(0.000836381875277 -4.97336678311e-05 0)
(0.000861253161083 -5.03711254624e-05 0)
(0.000886194143332 -5.0408360679e-05 0)
(0.000910892491197 -4.97540929028e-05 0)
(0.000934999007846 -4.83298645832e-05 0)
(0.000958135521291 -4.60780030482e-05 0)
(0.000979906137607 -4.2969351569e-05 0)
(0.000999911515169 -3.90097161752e-05 0)
(0.00101776535902 -3.42438646187e-05 0)
(0.00103311186409 -2.87560035423e-05 0)
(0.00104564245256 -2.26660547711e-05 0)
(0.00105510999756 -1.61218060248e-05 0)
(0.00106133894552 -9.28799037742e-06 0)
(0.00106423038409 -2.33419312574e-06 0)
(0.00106376200247 4.57623825924e-06 0)
(0.00105998375542 1.12945491714e-05 0)
(0.00105301057078 1.76914779459e-05 0)
(0.0010430135029 2.36590714815e-05 0)
(0.00103021044557 2.91103276367e-05 0)
(0.00101485708022 3.39777752225e-05 0)
(0.000997238312427 3.82119313428e-05 0)
(0.000977660149614 4.17801961582e-05 0)
(0.000956441838722 4.46663282608e-05 0)
(0.000933908102147 4.68702997975e-05 0)
(0.000910381437906 4.84081289666e-05 0)
(0.000886174624131 4.93112490178e-05 0)
(0.000861583724088 4.96250859357e-05 0)
(0.000836881973834 4.94067302081e-05 0)
(0.000812314923325 4.87218301057e-05 0)
(0.000788097098561 4.76410250781e-05 0)
(0.000764410290772 4.62363288281e-05 0)
(0.000741403405215 4.45778501889e-05 0)
(0.00071919365823 4.27311366104e-05 0)
(0.000697868820932 4.07552842856e-05 0)
(0.000677490175836 3.87018263543e-05 0)
(0.000658095868876 3.66143115244e-05 0)
(0.00063970438677 3.45284306486e-05 0)
(0.000622317951813 3.24725316767e-05 0)
(0.000605925689553 3.04683744139e-05 0)
(0.000590506481321 2.85320017381e-05 0)
(0.000576031459139 2.66746351297e-05 0)
(0.000562466134292 2.49035315297e-05 0)
(0.000549772173946 2.32227637345e-05 0)
(0.000537908854315 2.16339052451e-05 0)
(0.000526834226317 2.01366142195e-05 0)
(0.000516506032236 1.8729119615e-05 0)
(0.000506882411257 1.74086179467e-05 0)
(0.000497922429134 1.61715913476e-05 0)
(0.000489586463596 1.50140585836e-05 0)
(0.000481836472984 1.39317701722e-05 0)
(0.000474636171484 1.29203580178e-05 0)
(0.000467951130441 1.19754486537e-05 0)
(0.000461748821636 1.10927480693e-05 0)
(0.000455998615274 1.02681048339e-05 0)
(0.000450671742657 9.49755727539e-06 0)
(0.000445741231132 8.77736955489e-06 0)
(0.000441181816813 8.10406084285e-06 0)
(0.00043696983885 7.4744312884e-06 0)
(0.000433083117414 6.88558816322e-06 0)
(0.000429500816297 6.33497542928e-06 0)
(0.000426203289831 5.82040995201e-06 0)
(0.00042317191295 5.34012776541e-06 0)
(0.000420388892526 4.89284394781e-06 0)
(0.000417837057951 4.4778299673e-06 0)
(0.000415499629404 4.09501230011e-06 0)
(0.00041335996408 3.74509575143e-06 0)
(0.000411401284557 3.42971305547e-06 0)
(0.000409606401098 3.15159804365e-06 0)
(0.000407957453414 2.91476937104e-06 0)
(0.00040643572117 2.7246896711e-06 0)
(0.00040502159195 2.5883164499e-06 0)
(0.000403694837617 2.5138552191e-06 0)
(0.00040243543803 2.50978774537e-06 0)
(0.000401225280907 2.58220115431e-06 0)
(0.000400050961959 2.72813553696e-06 0)
(0.000398906700185 2.91983462264e-06 0)
(0.00039779073663 3.07201284625e-06 0)
(0.00121688734023 0.000182376833183 0)
(0.00124886900775 0.000358172751752 0)
(0.00126512304553 0.000407273841368 0)
(0.00125484545938 0.0003943111006 0)
(0.00122382216599 0.000357323690878 0)
(0.00118037400649 0.0003141432053 0)
(0.00113106100543 0.000272264397202 0)
(0.0010802674257 0.00023445255597 0)
(0.00103068814698 0.000201398559774 0)
(0.000983859760404 0.000172931472536 0)
(0.000940568948654 0.000148564247126 0)
(0.000901135007131 0.00012773381965 0)
(0.00086559637161 0.000109901212734 0)
(0.000833830505804 9.45879427757e-05 0)
(0.000805629442701 8.13841387612e-05 0)
(0.000780746487607 6.9944839965e-05 0)
(0.000758924444525 5.9982060541e-05 0)
(0.000739912140243 5.12560154566e-05 0)
(0.00072347361746 4.35669231272e-05 0)
(0.000709392792914 3.67478789669e-05 0)
(0.000697475356761 3.06588804214e-05 0)
(0.000687549034614 2.51819129414e-05 0)
(0.000679462915219 2.02169488312e-05 0)
(0.000673086280255 1.56787046211e-05 0)
(0.000668307203455 1.14940171726e-05 0)
(0.000665031078892 7.59972019725e-06 0)
(0.000663179170269 3.94092465522e-06 0)
(0.000662687229995 4.69626400958e-07 0)
(0.000663504209261 -2.85641883921e-06 0)
(0.000665591061559 -6.07459191582e-06 0)
(0.000668919634705 -9.21813000504e-06 0)
(0.000673471637897 -1.23166839987e-05 0)
(0.000679237661003 -1.53967279491e-05 0)
(0.000686216221379 -1.84818324652e-05 0)
(0.000694412809579 -2.15928060523e-05 0)
(0.000703838901199 -2.47477026214e-05 0)
(0.000714510897912 -2.7961688549e-05 0)
(0.000726448956179 -3.12467582664e-05 0)
(0.000739675657456 -3.46112841601e-05 0)
(0.00075421446902 -3.80593845208e-05 0)
(0.00077008794041 -4.15900937694e-05 0)
(0.000787315577699 -4.51963228515e-05 0)
(0.00080591133763 -4.88636067927e-05 0)
(0.000825880687696 -5.25686524374e-05 0)
(0.000847217189051 -5.62777254242e-05 0)
(0.0008698985795 -5.99449531782e-05 0)
(0.000893882367528 -6.3510672391e-05 0)
(0.000919100999158 -6.69000139377e-05 0)
(0.000945456730799 -7.00219919724e-05 0)
(0.000972816434799 -7.2769436275e-05 0)
(0.00100100667791 -7.50201611915e-05 0)
(0.00102980953768 -7.6639775251e-05 0)
(0.00105895974067 -7.74864751777e-05 0)
(0.00108814379251 -7.74180115527e-05 0)
(0.00111700179064 -7.63007530301e-05 0)
(0.00114513253274 -7.40204272693e-05 0)
(0.00117210233753 -7.04937224153e-05 0)
(0.00119745767325 -6.56795486999e-05 0)
(0.00122074125742 -5.95884469485e-05 0)
(0.00124151077346 -5.22884628365e-05 0)
(0.00125935879459 -4.39059048639e-05 0)
(0.00127393201438 -3.46199406009e-05 0)
(0.001284947637 -2.46510735058e-05 0)
(0.00129220499112 -1.42450184735e-05 0)
(0.00129559119202 -3.65480650209e-06 0)
(0.00129508081135 6.87560316249e-06 0)
(0.00129073060342 1.71236199137e-05 0)
(0.00128267096488 2.68952031385e-05 0)
(0.00127109581919 3.60275255984e-05 0)
(0.00125625219915 4.4388510814e-05 0)
(0.00123843023451 5.18748773291e-05 0)
(0.00121795374554 5.8410037887e-05 0)
(0.00119517130862 6.39426390078e-05 0)
(0.00117044753109 6.84459223113e-05 0)
(0.00114415432342 7.19175982194e-05 0)
(0.00111666212923 7.43796377661e-05 0)
(0.00108833129368 7.58773395467e-05 0)
(0.00105950394289 7.64771979404e-05 0)
(0.00103049684915 7.62634159326e-05 0)
(0.00100159573681 7.53332631754e-05 0)
(0.000973051351003 7.37917607991e-05 0)
(0.000945077409875 7.17463024819e-05 0)
(0.000917850351337 6.93017832113e-05 0)
(0.000891510617546 6.65566488959e-05 0)
(0.000866165121422 6.3600071706e-05 0)
(0.0008418905108 6.0510262468e-05 0)
(0.000818736872033 5.73537902684e-05 0)
(0.000796731574085 5.41857021916e-05 0)
(0.00077588302653 5.10502137936e-05 0)
(0.000756184195886 4.7981757104e-05 0)
(0.000737615786167 4.50062095234e-05 0)
(0.000720149038044 4.21421707023e-05 0)
(0.000703748136419 3.94021959455e-05 0)
(0.000688372240217 3.67939298161e-05 0)
(0.000673977162942 3.43211104488e-05 0)
(0.000660516740402 3.1984434383e-05 0)
(0.000647943924948 2.97822843049e-05 0)
(0.000636211645263 2.77113297805e-05 0)
(0.000625273468417 2.57670149449e-05 0)
(0.00061508409742 2.39439486527e-05 0)
(0.00060559973356 2.22362124425e-05 0)
(0.00059677832876 2.0637600716e-05 0)
(0.000588579749248 1.91418060378e-05 0)
(0.000580965868284 1.77425608958e-05 0)
(0.000573900602381 1.6433745673e-05 0)
(0.000567349902645 1.52094711843e-05 0)
(0.000561281710329 1.40641429058e-05 0)
(0.000555665883562 1.29925130362e-05 0)
(0.000550474100364 1.19897257649e-05 0)
(0.000545679741493 1.10513605518e-05 0)
(0.000541257755384 1.01734778678e-05 0)
(0.000537184506397 9.35267159109e-06 0)
(0.000533437606895 8.58613213743e-06 0)
(0.00052999573329 7.87172420093e-06 0)
(0.000526838426464 7.2080826458e-06 0)
(0.0005239458779 6.59472915144e-06 0)
(0.000521298705133 6.03221024975e-06 0)
(0.000518877724103 5.52225315679e-06 0)
(0.00051666373279 5.0679275002e-06 0)
(0.000514637331174 4.67378469603e-06 0)
(0.000512778818637 4.3459152744e-06 0)
(0.000511068232343 4.09180317097e-06 0)
(0.000509485616903 3.91973576261e-06 0)
(0.000508011633228 3.83728866077e-06 0)
(0.000506628565064 3.84792444768e-06 0)
(0.000505321456718 3.94383915407e-06 0)
(0.00050407785618 4.0919934508e-06 0)
(0.000502881785529 4.21188858585e-06 0)
(0.00121278256923 0.000152706917438 0)
(0.00124143458832 0.000327208960899 0)
(0.00126509758491 0.000398320570681 0)
(0.00127086109324 0.000407778422075 0)
(0.00125899821872 0.000386742509808 0)
(0.00123416104234 0.000353009694363 0)
(0.00120119505952 0.000315676864163 0)
(0.00116393979919 0.000279088901527 0)
(0.00112513589892 0.00024514536609 0)
(0.00108662751532 0.000214521409792 0)
(0.00104959601394 0.000187296597007 0)
(0.00101475528112 0.000163276118794 0)
(0.000982499060046 0.000142153745618 0)
(0.000953007164295 0.000123593147702 0)
(0.000926320189353 0.000107266949019 0)
(0.000902391231718 9.2873920525e-05 0)
(0.000881121240707 8.01449931709e-05 0)
(0.000862382890425 6.88437175513e-05 0)
(0.000846036479822 5.87641356895e-05 0)
(0.000831940339248 4.97276139454e-05 0)
(0.00081995747722 4.15794272289e-05 0)
(0.000809959671967 3.41854783476e-05 0)
(0.000801829840429 2.74293203951e-05 0)
(0.000795463257742 2.12095379767e-05 0)
(0.000790768019689 1.54374871703e-05 0)
(0.000787665015302 1.00353688708e-05 0)
(0.000786087589891 4.93460093785e-06 0)
(0.000785981018328 7.44540541258e-08 0)
(0.000787301865042 -4.59907923037e-06 0)
(0.000790017277372 -9.13420180693e-06 0)
(0.000794104242843 -1.35740633241e-05 0)
(0.000799548821501 -1.79573361029e-05 0)
(0.000806345349589 -2.23186296338e-05 0)
(0.000814495605741 -2.6688748964e-05 0)
(0.00082400792259 -3.10947953437e-05 0)
(0.000834896219848 -3.55601020525e-05 0)
(0.000847178928621 -4.01039935489e-05 0)
(0.000860877770679 -4.47413516175e-05 0)
(0.000876016350581 -4.94819690505e-05 0)
(0.000892618513029 -5.43296696731e-05 0)
(0.000910706413059 -5.92811749401e-05 0)
(0.000930298243224 -6.43247027915e-05 0)
(0.00095140556095 -6.94382967735e-05 0)
(0.000974030162297 -7.45879045817e-05 0)
(0.000998160457711 -7.97252590328e-05 0)
(0.00102376732399 -8.47856633737e-05 0)
(0.00105079943859 -8.96858498035e-05 0)
(0.00107917815182 -9.43221641187e-05 0)
(0.00110879202447 -9.85694264109e-05 0)
(0.00113949125532 -0.000102280914502 0)
(0.00117108234576 -0.000105289991758 0)
(0.00120332348897 -0.000107413920328 0)
(0.00123592131214 -0.000108460326419 0)
(0.00126852971219 -0.000108236580086 0)
(0.00130075156888 -0.000106562005233 0)
(0.00133214405418 -0.000103282366956 0)
(0.00136222805649 -9.82855536022e-05 0)
(0.00139050189642 -9.1516857132e-05 0)
(0.00141645904055 -8.29918321117e-05 0)
(0.00143960893903 -7.28044601303e-05 0)
(0.0014594994526 -6.11284142445e-05 0)
(0.00147573869166 -4.82098675276e-05 0)
(0.00148801369297 -3.43517548468e-05 0)
(0.00149610352885 -1.98915194434e-05 0)
(0.00149988537041 -5.17634906107e-06 0)
(0.00149933349858 9.45938812208e-06 0)
(0.00149451267266 2.37108499009e-05 0)
(0.00148556801987 3.73122375263e-05 0)
(0.00147271352187 5.00401009376e-05 0)
(0.00145622054915 6.17124885294e-05 0)
(0.00143640714335 7.21862259231e-05 0)
(0.00141362813118 8.13541431372e-05 0)
(0.00138826578243 8.91432701649e-05 0)
(0.00136072060952 9.55141914395e-05 0)
(0.0013314020066 0.000100461089555 0)
(0.00130071866438 0.000104011633554 0)
(0.00126906898262 0.000106225813273 0)
(0.00123683194679 0.000107193064993 0)
(0.00120435906248 0.000107027483366 0)
(0.00117196791106 0.000105861418347 0)
(0.00113993771733 0.000103838146479 0)
(0.00110850706487 0.000101104474103 0)
(0.00107787363838 9.78040625961e-05 0)
(0.0010481956761 9.40720336131e-05 0)
(0.00101959471013 9.00311189676e-05 0)
(0.000992159152459 8.57893549877e-05 0)
(0.000965948327649 8.14391341799e-05 0)
(0.000940996628819 7.70573290472e-05 0)
(0.000917317559537 7.27061786945e-05 0)
(0.000894907503763 6.84346542903e-05 0)
(0.000873749131991 6.42800701019e-05 0)
(0.000853814401771 6.02697652343e-05 0)
(0.000835067146251 5.64227357459e-05 0)
(0.000817465267519 5.2751142514e-05 0)
(0.000800962565429 4.92616550472e-05 0)