/*--------------------------------*- C++ -*----------------------------------*\
  =========                 |
  \\      /  F ield         | OpenFOAM: The Open Source CFD Toolbox
   \\    /   O peration     | Website:  https://openfoam.org
    \\  /    A nd           | Version:  7
     \\/     M anipulation  |
\*---------------------------------------------------------------------------*/
FoamFile
{
    version     2.0;
    format      ascii;
    class       volScalarField;
    location    "3240";
    object      Ci;
}
// * * * * * * * * * * * * * * * * * * * * * * * * * * * * * * * * * * * * * //

dimensions      [0 -3 0 0 1 0 0];

internalField   nonuniform List<scalar> 
8192
(
9.99999999426
10.0000000204
10.0000000695
10.0000001474
10.0000002622
10.000000407
10.000000575
10.0000007605
10.0000009612
10.0000011741
10.0000013983
10.0000016313
10.0000018726
10.0000021197
10.0000023723
10.0000026274
10.0000028848
10.0000031415
10.0000033972
10.0000036486
10.0000038954
10.0000041339
10.0000043641
10.0000045815
10.0000047859
10.0000049723
10.0000051403
10.0000052844
10.0000054038
10.0000054924
10.0000055494
10.0000055683
10.0000055483
10.0000054827
10.0000053709
10.0000052064
10.0000049894
10.0000047141
10.0000043819
10.0000039882
10.0000035366
10.0000030239
10.0000024562
10.0000018322
10.000001161
10.0000004434
9.99999969144
9.99999890764
9.99999810646
9.99999729176
9.99999647984
9.99999567524
9.99999489585
9.99999414674
9.99999344739
9.9999928034
9.99999223566
9.99999174963
9.99999136633
9.99999108948
9.99999093826
9.99999091303
9.99999103004
9.99999128606
9.99999169444
9.9999922484
9.99999295729
9.99999380879
9.99999480509
9.99999592552
9.99999716329
9.99999848987
9.99999989193
10.0000013373
10.000002811
10.0000042821
10.0000057376
10.0000071512
10.0000085144
10.0000098063
10.0000110238
10.0000121517
10.0000131914
10.0000141332
10.0000149823
10.000015733
10.0000163936
10.0000169614
10.0000174464
10.0000178477
10.0000181751
10.0000184291
10.0000186207
10.0000187509
10.0000188307
10.0000188609
10.0000188518
10.0000188037
10.0000187259
10.0000186183
10.0000184893
10.0000183377
10.0000181715
10.0000179887
10.0000177963
10.000017592
10.0000173822
10.0000171638
10.0000169428
10.0000167157
10.0000164879
10.0000162557
10.0000160237
10.0000157878
10.0000155521
10.0000153118
10.0000150702
10.0000148214
10.0000145677
10.0000143024
10.0000140274
10.0000137362
10.0000134327
10.0000131145
10.0000127916
10.0000124728
10.0000121829
10.000011981
9.99999999821
10.0000000406
10.0000000939
10.0000001676
10.0000002673
10.0000003917
10.0000005385
10.0000007051
10.0000008893
10.0000010883
10.0000013005
10.0000015235
10.0000017562
10.000001996
10.0000022423
10.0000024923
10.0000027455
10.000002999
10.0000032523
10.0000035024
10.0000037488
10.0000039883
10.0000042203
10.0000044412
10.0000046504
10.0000048435
10.0000050198
10.0000051744
10.0000053064
10.0000054104
10.0000054852
10.0000055252
10.0000055291
10.0000054912
10.0000054104
10.000005281
10.0000051028
10.0000048706
10.0000045852
10.0000042426
10.0000038457
10.0000033916
10.0000028851
10.0000023253
10.0000017195
10.0000010687
10.0000003828
9.99999966444
9.99999892553
9.99999816994
9.99999741127
9.99999665409
9.99999591339
9.99999519438
9.99999451348
9.99999387661
9.99999330143
9.99999279414
9.99999237266
9.99999204223
9.9999918195
9.99999170751
9.99999172073
9.99999185966
9.9999921363
9.99999254824
9.99999310383
9.99999379577
9.99999462603
9.99999557997
9.99999665162
9.9999978191
9.9999990702
10.0000003789
10.0000017303
10.0000030982
10.0000044683
10.0000058169
10.0000071328
10.0000083965
10.000009601
10.0000107316
10.0000117859
10.0000127539
10.0000136372
10.00001443
10.0000151372
10.0000157563
10.0000162945
10.0000167511
10.0000171323
10.0000174399
10.0000176832
10.0000178642
10.0000179921
10.0000180687
10.0000181029
10.0000180961
10.0000180564
10.0000179848
10.0000178885
10.000017768
10.0000176297
10.0000174732
10.0000173046
10.0000171228
10.0000169331
10.000016734
10.0000165303
10.0000163199
10.0000161072
10.0000158898
10.0000156714
10.0000154492
10.0000152262
10.0000149991
10.0000147702
10.0000145349
10.0000142947
10.0000140442
10.0000137841
10.0000135092
10.0000132217
10.0000129185
10.0000126044
10.0000122903
10.0000119974
10.00001177
9.99999999912
10.0000000596
10.0000001223
10.0000001909
10.0000002747
10.0000003751
10.0000004933
10.0000006286
10.0000007813
10.0000009495
10.000001133
10.000001329
10.0000015373
10.0000017548
10.0000019813
10.0000022136
10.0000024517
10.0000026923
10.0000029355
10.0000031778
10.0000034195
10.0000036568
10.0000038902
10.0000041155
10.0000043331
10.0000045385
10.0000047318
10.0000049081
10.0000050676
10.0000052047
10.0000053194
10.000005406
10.0000054645
10.0000054886
10.0000054787
10.0000054285
10.0000053389
10.0000052035
10.0000050244
10.0000047958
10.000004521
10.0000041951
10.0000038233
10.0000034018
10.0000029379
10.0000024289
10.0000018845
10.000001303
10.0000006962
10.0000000632
9.99999941723
9.9999987582
9.99999810081
9.99999744538
9.99999680828
9.99999619046
9.99999560994
9.9999950682
9.99999458428
9.99999415945
9.99999381267
9.99999354406
9.99999337158
9.99999329384
9.99999332732
9.99999346879
9.99999373224
9.99999411117
9.99999461488
9.99999523159
9.99999596421
9.99999679518
9.99999772158
9.99999872165
9.99999978864
10.0000008989
10.000002044
10.0000032003
10.0000043599
10.0000055009
10.0000066171
10.00000769
10.0000087162
10.000009681
10.0000105844
10.0000114156
10.0000121778
10.0000128638
10.0000134793
10.0000140201
10.000014493
10.0000148956
10.0000152364
10.0000155143
10.0000157384
10.0000159083
10.0000160332
10.0000161129
10.0000161562
10.0000161628
10.0000161409
10.0000160898
10.0000160173
10.0000159221
10.0000158115
10.0000156835
10.000015545
10.0000153936
10.0000152356
10.0000150682
10.0000148971
10.0000147191
10.0000145396
10.0000143548
10.0000141694
10.0000139793
10.0000137883
10.0000135914
10.0000133916
10.0000131828
10.0000129672
10.0000127388
10.0000125007
10.0000122488
10.0000119822
10.0000117085
10.0000114378
10.0000112235
9.999999999
10.0000000763
10.0000001452
10.0000002174
10.0000002993
10.0000003919
10.0000004961
10.0000006126
10.0000007421
10.0000008845
10.00000104
10.0000012076
10.0000013871
10.0000015767
10.0000017761
10.0000019833
10.0000021978
10.0000024174
10.0000026416
10.0000028681
10.0000030965
10.0000033243
10.0000035511
10.0000037742
10.0000039931
10.000004205
10.000004409
10.0000046021
10.0000047834
10.0000049494
10.000005099
10.0000052285
10.0000053367
10.0000054195
10.0000054758
10.0000055013
10.0000054951
10.0000054531
10.0000053745
10.0000052557
10.0000050968
10.0000048947
10.0000046505
10.0000043621
10.0000040321
10.0000036596
10.0000032486
10.0000027995
10.0000023179
10.0000018053
10.0000012688
10.0000007107
10.0000001395
9.99999955855
9.9999989778
9.99999840183
9.99999784194
9.99999730388
9.99999679989
9.9999963361
9.99999592467
9.99999557097
9.99999528612
9.9999950742
9.99999494494
9.99999490098
9.99999495025
9.99999509304
9.99999533411
9.99999566989
9.99999610086
9.99999661923
9.99999722168
9.99999789729
9.99999864016
9.99999943737
10.0000002814
10.0000011581
10.0000020593
10.0000029705
10.0000038837
10.0000047855
10.0000056688
10.0000065222
10.0000073405
10.0000081148
10.0000088424
10.000009517
10.0000101382
10.0000107023
10.000011211
10.0000116624
10.0000120597
10.0000124025
10.0000126952
10.0000129385
10.0000131373
10.000013293
10.0000134107
10.000013492
10.0000135419
10.000013562
10.0000135572
10.0000135288
10.0000134813
10.0000134156
10.0000133361
10.0000132431
10.0000131406
10.0000130286
10.0000129106
10.0000127863
10.0000126586
10.0000125268
10.0000123933
10.0000122569
10.0000121192
10.0000119784
10.0000118351
10.0000116864
10.0000115321
10.0000113685
10.0000111955
10.0000110116
10.000010816
10.0000106166
10.0000104035
10.0000102756
10.0000000051
10.0000000979
10.0000001828
10.0000002622
10.0000003456
10.0000004353
10.0000005326
10.0000006385
10.000000754
10.0000008794
10.0000010151
10.0000011608
10.0000013168
10.0000014821
10.0000016565
10.000001839
10.0000020292
10.0000022256
10.0000024279
10.0000026344
10.0000028446
10.0000030568
10.0000032704
10.0000034835
10.0000036954
10.000003904
10.0000041084
10.0000043062
10.0000044965
10.0000046764
10.000004845
10.000004999
10.0000051372
10.0000052561
10.0000053544
10.0000054284
10.0000054766
10.0000054952
10.000005483
10.0000054363
10.0000053541
10.0000052331
10.0000050734
10.0000048721
10.0000046304
10.0000043468
10.0000040236
10.0000036607
10.0000032622
10.000002829
10.0000023669
10.0000018781
10.0000013701
10.0000008463
10.0000003155
9.99999978279
9.99999925843
9.9999987486
9.99999826448
9.99999781247
9.99999740338
9.99999704246
9.9999967389
9.9999964961
9.99999632132
9.99999621615
9.99999618594
9.99999623016
9.9999963515
9.99999654646
9.99999681454
9.99999714945
9.99999754841
9.99999800365
9.99999851131
9.99999906306
9.99999965441
10.0000002767
10.0000009248
10.0000015897
10.0000022662
10.0000029453
10.0000036218
10.0000042873
10.0000049372
10.0000055644
10.0000061652
10.0000067341
10.000007269
10.0000077658
10.000008224
10.0000086411
10.0000090179
10.0000093532
10.0000096491
10.0000099053
10.0000101247
10.0000103079
10.0000104583
10.0000105769
10.0000106676
10.0000107315
10.0000107725
10.0000107919
10.0000107934
10.0000107781
10.0000107497
10.000010709
10.0000106593
10.0000106013
10.0000105378
10.0000104691
10.0000103977
10.0000103234
10.0000102484
10.0000101718
10.0000100951
10.0000100171
10.0000099381
10.0000098561
10.0000097704
10.0000096781
10.0000095775
10.0000094678
10.0000093455
10.0000092273
10.000009083
10.0000090459
10.0000000054
10.0000001078
10.0000001989
10.000000288
10.0000003797
10.0000004742
10.0000005727
10.0000006762
10.0000007859
10.0000009024
10.0000010265
10.0000011583
10.0000012982
10.0000014459
10.0000016015
10.0000017644
10.0000019345
10.000002111
10.0000022936
10.0000024812
10.0000026735
10.0000028691
10.0000030676
10.0000032675
10.0000034681
10.0000036678
10.0000038657
10.0000040598
10.0000042491
10.0000044314
10.0000046054
10.0000047685
10.0000049191
10.0000050543
10.0000051724
10.00000527
10.0000053452
10.0000053945
10.000005416
10.0000054059
10.0000053627
10.0000052829
10.0000051654
10.0000050077
10.0000048094
10.0000045693
10.0000042884
10.0000039669
10.0000036077
10.0000032126
10.0000027862
10.0000023319
10.000001856
10.0000013635
10.0000008623
10.0000003589
9.99999986264
9.99999938147
9.99999892543
9.99999850278
9.99999812275
9.99999779206
9.9999975175
9.99999730312
9.99999715286
9.99999706813
9.9999970504
9.99999709848
9.99999721116
9.99999738419
9.99999761359
9.99999789278
9.9999982166
9.99999857801
9.99999897231
9.99999939306
9.9999998364
10.0000002965
10.0000007701
10.0000012519
10.0000017388
10.0000022259
10.0000027105
10.0000031877
10.0000036552
10.0000041086
10.0000045458
10.000004963
10.0000053589
10.0000057303
10.0000060766
10.0000063957
10.0000066877
10.0000069513
10.0000071875
10.0000073958
10.0000075777
10.0000077336
10.0000078655
10.0000079741
10.000008062
10.0000081302
10.0000081814
10.0000082167
10.000008239
10.0000082494
10.0000082506
10.0000082437
10.000008231
10.0000082135
10.0000081933
10.000008171
10.0000081483
10.0000081253
10.0000081034
10.0000080824
10.0000080629
10.000008044
10.0000080258
10.0000080065
10.0000079849
10.000007959
10.000007926
10.0000078863
10.0000078326
10.0000077863
10.0000077068
10.0000077332
10.0000000094
10.0000001189
10.0000002215
10.0000003169
10.0000004128
10.00000051
10.0000006093
10.0000007116
10.000000818
10.0000009293
10.0000010461
10.0000011689
10.000001298
10.0000014336
10.0000015758
10.0000017246
10.0000018797
10.0000020409
10.0000022078
10.00000238
10.0000025569
10.0000027379
10.0000029222
10.000003109
10.0000032974
10.0000034862
10.0000036745
10.0000038606
10.0000040436
10.0000042213
10.0000043925
10.0000045548
10.0000047068
10.0000048453
10.0000049688
10.0000050737
10.0000051583
10.0000052187
10.000005253
10.0000052571
10.0000052293
10.000005166
10.0000050657
10.0000049256
10.000004745
10.0000045229
10.0000042595
10.0000039558
10.0000036139
10.0000032365
10.0000028276
10.0000023917
10.0000019344
10.000001462
10.0000009814
10.0000005005
10.0000000279
9.99999957249
9.999999144
9.99999875166
9.99999840432
9.99999810947
9.99999787321
9.99999769974
9.99999759167
9.99999754987
9.99999757392
9.99999766163
9.99999780945
9.99999801196
9.99999826266
9.99999855389
9.99999887815
9.99999922783
9.99999959637
9.99999997748
10.0000003661
10.0000007573
10.0000011474
10.0000015328
10.0000019108
10.0000022791
10.0000026357
10.0000029789
10.0000033074
10.00000362
10.0000039159
10.0000041939
10.0000044536
10.0000046943
10.0000049156
10.0000051174
10.0000052997
10.0000054626
10.0000056065
10.000005732
10.00000584
10.0000059313
10.0000060071
10.0000060687
10.0000061175
10.0000061549
10.0000061827
10.0000062022
10.0000062152
10.0000062231
10.0000062275
10.0000062298
10.0000062313
10.0000062332
10.0000062367
10.0000062423
10.000006251
10.0000062632
10.0000062791
10.0000062987
10.0000063218
10.0000063478
10.0000063758
10.0000064045
10.000006432
10.0000064568
10.0000064746
10.0000064879
10.000006486
10.0000064923
10.0000064654
10.0000065232
10.0000000069
10.0000001192
10.0000002225
10.0000003243
10.0000004275
10.0000005309
10.0000006345
10.0000007391
10.0000008458
10.0000009555
10.0000010691
10.0000011869
10.0000013098
10.0000014378
10.0000015715
10.0000017107
10.0000018556
10.000002006
10.0000021618
10.0000023226
10.0000024882
10.0000026577
10.0000028309
10.0000030068
10.0000031849
10.0000033638
10.0000035431
10.0000037208
10.0000038967
10.0000040678
10.0000042342
10.0000043919
10.0000045415
10.0000046775
10.0000048013
10.0000049058
10.0000049932
10.0000050551
10.0000050941
10.0000051016
10.00000508
10.0000050216
10.0000049282
10.0000047943
10.0000046212
10.0000044062
10.0000041509
10.0000038555
10.0000035227
10.000003155
10.000002757
10.000002333
10.000001889
10.0000014309
10.0000009659
10.0000005015
10.0000000463
9.99999960972
9.99999920141
9.99999883151
9.99999850932
9.99999824343
9.99999804007
9.99999790402
9.99999783725
9.99999784046
9.9999979118
9.99999804831
9.99999824463
9.99999849403
9.99999878812
9.99999911776
9.99999947395
9.99999984789
10.0000002322
10.0000006195
10.0000010045
10.0000013814
10.0000017465
10.0000020957
10.0000024269
10.0000027375
10.0000030268
10.0000032935
10.0000035379
10.0000037596
10.0000039594
10.0000041374
10.0000042949
10.0000044322
10.0000045507
10.0000046509
10.0000047344
10.0000048018
10.0000048549
10.0000048944
10.000004922
10.0000049389
10.0000049467
10.0000049467
10.0000049407
10.0000049299
10.0000049162
10.0000049007
10.0000048852
10.0000048708
10.0000048589
10.0000048505
10.0000048468
10.0000048484
10.0000048562
10.0000048704
10.0000048916
10.0000049195
10.0000049542
10.0000049951
10.0000050417
10.0000050929
10.0000051475
10.000005204
10.0000052598
10.000005314
10.0000053611
10.0000054045
10.0000054324
10.0000054662
10.0000054719
10.0000055348
10.0000000103
10.0000001273
10.0000002388
10.0000003436
10.0000004486
10.0000005536
10.0000006586
10.000000764
10.0000008705
10.0000009791
10.0000010905
10.0000012054
10.0000013242
10.0000014474
10.0000015754
10.0000017084
10.0000018464
10.0000019896
10.0000021376
10.0000022905
10.0000024478
10.000002609
10.0000027739
10.0000029415
10.0000031116
10.0000032826
10.0000034548
10.0000036251
10.0000037951
10.0000039596
10.0000041221
10.000004274
10.000004422
10.0000045529
10.0000046778
10.0000047779
10.0000048691
10.0000049275
10.0000049727
10.0000049782
10.0000049643
10.0000049063
10.0000048214
10.0000046911
10.0000045268
10.000004319
10.0000040734
10.0000037883
10.0000034671
10.0000031127
10.0000027287
10.0000023203
10.0000018923
10.000001451
10.0000010025
10.0000005546
10.0000001148
9.99999969293
9.99999929852
9.99999894278
9.99999863546
9.99999838656
9.99999820294
9.99999809034
9.99999805074
9.99999808482
9.99999819003
9.99999836269
9.9999985963
9.99999888331
9.99999921403
9.99999957871
9.99999996717
10.0000003704
10.00000078
10.0000011887
10.0000015899
10.0000019781
10.0000023481
10.0000026962
10.0000030189
10.0000033143
10.0000035806
10.0000038173
10.0000040241
10.0000042018
10.000004351
10.0000044733
10.00000457
10.000004643
10.0000046939
10.0000047249
10.0000047378
10.0000047348
10.0000047177
10.0000046888
10.0000046499
10.0000046031
10.0000045504
10.0000044937
10.0000044348
10.0000043757
10.0000043179
10.0000042632
10.0000042128
10.0000041684
10.0000041309
10.0000041015
10.0000040807
10.0000040695
10.0000040679
10.0000040763
10.0000040944
10.0000041221
10.0000041586
10.0000042035
10.0000042551
10.0000043128
10.0000043742
10.0000044386
10.0000045019
10.0000045647
10.0000046189
10.0000046708
10.0000047055
10.0000047451
10.0000047599
10.0000048113
10.0000000072
10.0000001261
10.0000002372
10.0000003469
10.0000004575
10.0000005675
10.0000006764
10.0000007845
10.0000008928
10.0000010019
10.000001113
10.0000012266
10.0000013435
10.000001464
10.0000015888
10.000001718
10.0000018519
10.0000019905
10.0000021338
10.0000022815
10.0000024337
10.0000025894
10.0000027491
10.0000029109
10.0000030763
10.0000032415
10.0000034099
10.0000035743
10.0000037424
10.0000039006
10.000004064
10.0000042086
10.0000043615
10.0000044834
10.0000046185
10.0000047069
10.0000048144
10.0000048586
10.0000049257
10.0000049159
10.0000049272
10.0000048563
10.000004796
10.0000046591
10.000004516
10.0000043098
10.0000040812
10.000003805
10.0000034984
10.0000031569
10.0000027871
10.0000023924
10.0000019777
10.0000015483
10.0000011101
10.0000006699
10.0000002353
9.99999981609
9.99999942247
9.99999906709
9.99999876124
9.99999851731
9.99999834354
9.99999824756
9.99999823125
9.99999829562
9.99999843628
9.99999864857
9.9999989235
9.99999925207
9.99999962246
10.0000000238
10.000000445
10.0000008768
10.0000013107
10.0000017397
10.0000021576
10.0000025585
10.0000029379
10.0000032914
10.0000036158
10.0000039085
10.000004168
10.0000043934
10.0000045846
10.000004742
10.0000048669
10.0000049604
10.0000050247
10.0000050617
10.0000050738
10.0000050634
10.000005033
10.0000049853
10.0000049227
10.0000048479
10.0000047635
10.0000046718
10.0000045754
10.0000044766
10.0000043776
10.0000042804
10.000004187
10.0000040993
10.0000040188
10.0000039468
10.0000038846
10.0000038331
10.0000037929
10.0000037646
10.0000037482
10.0000037437
10.0000037507
10.0000037686
10.0000037965
10.0000038334
10.0000038777
10.0000039284
10.0000039825
10.0000040399
10.000004095
10.0000041504
10.0000041951
10.0000042392
10.0000042624
10.0000042928
10.0000042952
10.0000043286
10.0000000107
10.0000001349
10.0000002539
10.000000366
10.0000004778
10.0000005888
10.0000006987
10.0000008078
10.0000009166
10.0000010259
10.0000011366
10.0000012494
10.0000013649
10.0000014838
10.0000016066
10.0000017334
10.0000018648
10.0000020005
10.000002141
10.0000022854
10.0000024346
10.0000025867
10.0000027437
10.0000029015
10.000003065
10.0000032255
10.0000033937
10.0000035523
10.0000037235
10.0000038733
10.0000040455
10.0000041768
10.0000043478
10.0000044479
10.0000046145
10.0000046691
10.0000048255
10.000004821
10.0000049559
10.0000048845
10.0000049778
10.0000048409
10.0000048652
10.0000046724
10.0000046012
10.0000043625
10.0000041835
10.0000039011
10.0000036239
10.0000032929
10.0000029411
10.0000025607
10.0000021588
10.00000174
10.0000013096
10.000000874
10.0000004402
10.0000000182
9.99999961882
9.99999925552
9.9999989421
9.99999869263
9.99999851856
9.99999842851
9.9999984263
9.99999851171
9.99999868013
9.9999989239
9.99999923283
9.9999995951
9.99999999809
10.0000004291
10.0000008772
10.0000013321
10.0000017869
10.0000022346
10.0000026687
10.0000030835
10.000003474
10.0000038359
10.0000041657
10.0000044611
10.0000047204
10.0000049427
10.0000051284
10.0000052779
10.0000053921
10.0000054726
10.0000055212
10.0000055402
10.0000055319
10.0000054992
10.0000054446
10.0000053713
10.0000052819
10.0000051795
10.0000050669
10.000004947
10.0000048225
10.000004696
10.0000045699
10.0000044467
10.0000043284
10.0000042169
10.0000041138
10.0000040208
10.0000039388
10.0000038688
10.0000038113
10.0000037668
10.0000037351
10.000003716
10.0000037089
10.0000037131
10.0000037272
10.0000037504
10.0000037802
10.0000038164
10.0000038545
10.0000038961
10.0000039331
10.0000039716
10.0000039956
10.0000040226
10.0000040219
10.0000040358
10.0000040104
10.0000040263
10.0000000077
10.0000001342
10.0000002534
10.0000003704
10.0000004877
10.0000006036
10.0000007175
10.0000008296
10.0000009406
10.0000010515
10.0000011629
10.000001276
10.0000013914
10.0000015097
10.0000016316
10.0000017573
10.0000018876
10.0000020218
10.0000021611
10.0000023038
10.000002452
10.0000026019
10.0000027587
10.0000029137
10.0000030786
10.0000032347
10.0000034079
10.0000035587
10.0000037414
10.0000038766
10.0000040723
10.0000041758
10.0000043908
10.00000444
10.0000046838
10.0000046505
10.0000049324
10.000004789
10.0000051099
10.0000048414
10.0000051808
10.0000048006
10.0000051057
10.0000046621
10.0000048557
10.000004414
10.0000044298
10.0000040311
10.0000038565
10.0000034865
10.0000031687
10.0000027865
10.0000023912
10.0000019746
10.0000015425
10.0000011017
10.0000006578
10.0000002219
9.99999980328
9.99999941792
9.99999908229
9.99999881555
9.99999863245
9.99999854625
9.99999856144
9.99999867867
9.99999888965
9.99999918368
9.9999995454
9.99999995925
10.0000004095
10.0000008808
10.0000013624
10.0000018451
10.0000023212
10.0000027842
10.0000032288
10.0000036497
10.0000040429
10.0000044041
10.0000047308
10.0000050204
10.000005272
10.0000054846
10.000005659
10.0000057958
10.000005897
10.0000059639
10.0000059986
10.000006003
10.0000059798
10.0000059314
10.0000058609
10.000005771
10.0000056648
10.0000055453
10.0000054155
10.0000052783
10.0000051366
10.0000049931
10.0000048504
10.0000047108
10.0000045767
10.0000044499
10.0000043321
10.0000042248
10.000004129
10.0000040456
10.0000039751
10.0000039176
10.000003873
10.0000038409
10.0000038204
10.0000038106
10.0000038101
10.0000038178
10.000003831
10.0000038496
10.0000038685
10.0000038906
10.0000039052
10.0000039228
10.0000039209
10.0000039271
10.0000038963
10.000003892
10.0000038295
10.0000038326
10.0000000114
10.0000001436
10.0000002709
10.0000003904
10.000000509
10.0000006261
10.0000007414
10.000000855
10.0000009674
10.0000010792
10.0000011915
10.0000013049
10.0000014203
10.0000015384
10.0000016601
10.0000017853
10.0000019152
10.0000020487
10.0000021879
10.0000023296
10.0000024783
10.0000026267
10.0000027854
10.0000029375
10.0000031071
10.0000032574
10.000003441
10.0000035796
10.0000037839
10.0000038935
10.0000041323
10.0000041836
10.0000044816
10.0000044286
10.0000048254
10.0000046036
10.0000051523
10.0000046856
10.0000054381
10.0000046643
10.0000056368
10.000004554
10.0000056763
10.0000043928
10.0000054781
10.0000042135
10.0000050056
10.0000039885
10.0000043094
10.0000036256
10.0000035113
10.0000030468
10.0000026929
10.000002275
10.0000018433
10.0000013988
10.000000944
10.0000004888
10.0000000453
9.99999962939
9.9999992616
9.99999896497
9.99999876077
9.99999866626
9.99999869045
9.99999883284
9.99999908302
9.99999942473
9.99999983756
10.0000003021
10.0000007983
10.0000013113
10.0000018292
10.0000023418
10.0000028416
10.0000033226
10.0000037798
10.0000042087
10.0000046055
10.000004967
10.0000052905
10.0000055743
10.0000058174
10.0000060195
10.0000061813
10.0000063039
10.0000063896
10.0000064403
10.0000064594
10.0000064486
10.0000064103
10.0000063472
10.0000062621
10.000006158
10.0000060378
10.0000059046
10.0000057614
10.0000056111
10.0000054566
10.0000053008
10.000005146
10.000004995
10.0000048496
10.000004712
10.0000045837
10.0000044661
10.0000043602
10.0000042667
10.0000041859
10.000004118
10.0000040625
10.0000040189
10.0000039862
10.0000039633
10.0000039484
10.0000039408
10.000003937
10.0000039377
10.0000039364
10.0000039381
10.000003929
10.0000039248
10.0000038954
10.0000038805
10.0000038174
10.0000037959
10.000003693
10.000003688
10.0000000086
10.0000001436
10.0000002714
10.0000003959
10.0000005199
10.0000006419
10.0000007614
10.0000008785
10.0000009939
10.0000011081
10.0000012221
10.0000013368
10.0000014533
10.000001572
10.0000016942
10.0000018196
10.0000019502
10.0000020837
10.0000022239
10.0000023653
10.0000025161
10.0000026635
10.0000028261
10.0000029754
10.0000031528
10.0000032963
10.0000034954
10.0000036181
10.0000038537
10.0000039274
10.0000042292
10.0000042029
10.0000046266
10.0000044127
10.0000050547
10.0000045146
10.0000055237
10.0000044629
10.0000060325
10.0000042301
10.0000065416
10.0000038437
10.0000069356
10.0000034215
10.0000070134
10.0000031449
10.0000065625
10.0000031281
10.0000055593
10.0000032431
10.0000042883
10.0000031402
10.000003132
10.0000025923
10.0000021784
10.0000017242
10.0000012419
10.0000007521
10.0000002586
9.99999978651
9.99999936111
9.99999901002
9.99999876349
9.99999865275
9.99999869134
9.99999887796
9.99999919408
9.999999616
10.000000114
10.0000006615
10.0000012329
10.0000018113
10.0000023821
10.0000029351
10.0000034638
10.0000039634
10.0000044306
10.0000048617
10.0000052547
10.0000056071
10.0000059179
10.0000061855
10.0000064102
10.0000065917
10.0000067316
10.0000068311
10.0000068931
10.0000069198
10.0000069148
10.000006881
10.0000068221
10.0000067395
10.0000066363
10.0000065151
10.0000063792
10.0000062312
10.0000060743
10.0000059112
10.0000057449
10.0000055779
10.0000054128
10.0000052519
10.0000050973
10.0000049508
10.0000048141
10.0000046883
10.0000045743
10.0000044726
10.0000043836
10.0000043068
10.0000042421
10.0000041883
10.0000041446
10.0000041096
10.0000040815
10.0000040591
10.0000040391
10.0000040223
10.0000040016
10.0000039832
10.0000039512
10.0000039255
10.0000038693
10.0000038336
10.0000037389
10.0000037012
10.0000035579
10.000003547
10.0000000122
10.0000001531
10.0000002887
10.0000004156
10.0000005408
10.0000006642
10.0000007854
10.0000009044
10.0000010217
10.0000011377
10.0000012535
10.0000013695
10.0000014871
10.0000016067
10.0000017298
10.0000018558
10.0000019874
10.0000021213
10.0000022631
10.0000024048
10.0000025582
10.0000027053
10.0000028725
10.0000030199
10.0000032057
10.0000033433
10.0000035586
10.0000036662
10.000003934
10.0000039718
10.0000043399
10.000004231
10.0000047936
10.0000043956
10.0000053285
10.0000043912
10.0000059986
10.0000041175
10.0000068707
10.0000034713
10.0000079827
10.0000024168
10.0000092456
10.0000011112
10.0000103085
10.0000000077
10.0000105409
9.99999974724
10.0000093707
10.0000006232
10.0000069494
10.0000019936
10.000004376
10.0000026408
10.0000026624
10.0000021202
10.0000015996
10.0000010785
10.0000005209
9.99999998926
9.99999948986
9.99999904224
9.99999872575
9.99999859624
9.99999864756
9.99999884653
9.999999178
9.99999963211
10.0000001971
10.0000008362
10.0000015155
10.0000021981
10.0000028583
10.0000034818
10.0000040625
10.0000045982
10.000005088
10.0000055313
10.0000059276
10.0000062766
10.0000065781
10.0000068323
10.0000070395
10.0000072007
10.0000073176
10.0000073925
10.0000074281
10.000007428
10.0000073955
10.0000073347
10.0000072489
10.0000071426
10.0000070169
10.0000068747
10.000006719
10.0000065527
10.0000063788
10.0000062
10.000006019
10.0000058386
10.000005661
10.0000054886
10.0000053234
10.000005167
10.000005021
10.0000048862
10.0000047636
10.0000046533
10.0000045557
10.0000044699
10.0000043959
10.0000043318
10.0000042774
10.0000042299
10.000004189
10.0000041513
10.000004116
10.0000040808
10.0000040419
10.0000040022
10.0000039489
10.0000038995
10.0000038186
10.0000037589
10.0000036347
10.0000035757
10.0000033944
10.0000033694
10.0000000098
10.0000001535
10.0000002899
10.0000004215
10.0000005517
10.0000006796
10.0000008048
10.0000009274
10.000001048
10.0000011669
10.0000012852
10.0000014033
10.0000015228
10.0000016438
10.0000017685
10.0000018957
10.0000020289
10.000002164
10.0000023079
10.0000024507
10.0000026071
10.0000027553
10.0000029268
10.000003075
10.0000032673
10.0000034044
10.0000036303
10.0000037335
10.0000040209
10.0000040437
10.0000044517
10.0000042999
10.0000049512
10.0000044377
10.0000055794
10.0000043444
10.0000064493
10.0000038358
10.0000077467
10.0000026492
10.0000097139
10.0000005051
10.0000125232
9.99999732248
10.0000159467
9.99999364326
10.0000189174
9.99999099749
10.0000194866
9.99999139873
10.0000160857
9.99999536826
10.0000097807
10.0000002206
10.0000043255
10.0000022632
10.0000019467
10.0000014023
10.0000007446
10.0000001654
9.99999942914
9.99999875938
9.99999849603
9.99999848745
9.99999831973
9.99999788634
9.99999747672
9.99999746788
9.99999802906
9.99999906716
10.0000003496
10.000001644
10.0000028067
10.0000037876
10.0000045972
10.0000052671
10.0000058291
10.0000063053
10.0000067112
10.000007055
10.0000073431
10.0000075781
10.0000077627
10.0000078982
10.0000079871
10.0000080316
10.0000080351
10.0000080012
10.0000079342
10.0000078383
10.0000077181
10.0000075776
10.0000074215
10.0000072507
10.0000070684
10.0000068774
10.0000066809
10.0000064814
10.0000062816
10.000006084
10.000005891
10.0000057044
10.0000055264
10.0000053581
10.0000052014
10.0000050562
10.0000049243
10.0000048042
10.0000046977
10.0000046017
10.0000045186
10.0000044428
10.0000043783
10.0000043164
10.0000042639
10.0000042081
10.0000041593
10.0000041011
10.0000040468
10.0000039779
10.0000039071
10.0000038214
10.0000037204
10.0000036162
10.0000034677
10.0000033553
10.0000031401
10.0000030524
10.0000000132
10.0000001626
10.0000003061
10.0000004399
10.0000005711
10.0000007001
10.0000008269
10.0000009515
10.0000010743
10.0000011954
10.0000013158
10.0000014359
10.0000015573
10.0000016799
10.0000018063
10.000001935
10.0000020698
10.0000022066
10.0000023524
10.0000024975
10.000002656
10.0000028074
10.0000029811
10.000003134
10.000003328
10.0000034726
10.0000036982
10.0000038143
10.0000040966
10.0000041415
10.0000045357
10.0000044199
10.0000050466
10.0000045809
10.0000057008
10.0000044904
10.0000066529
10.0000038935
10.0000082093
10.0000023364
10.0000109061
9.99999911237
10.0000155005
9.99999338634
10.0000226316
9.99998484947
10.0000318103
9.99997510638
10.0000398837
9.99996890637
10.0000409146
9.99997223634
10.0000307304
9.99998541862
10.0000141953
9.99999865025
10.0000032452
10.0000019165
10.000001183
10.0000002892
9.9999985831
9.99999857066