/*--------------------------------*- C++ -*----------------------------------*\
  =========                 |
  \\      /  F ield         | OpenFOAM: The Open Source CFD Toolbox
   \\    /   O peration     | Website:  https://openfoam.org
    \\  /    A nd           | Version:  7
     \\/     M anipulation  |
\*---------------------------------------------------------------------------*/
FoamFile
{
    version     2.0;
    format      ascii;
    class       volScalarField;
    location    "3240";
    object      p;
}
// * * * * * * * * * * * * * * * * * * * * * * * * * * * * * * * * * * * * * //

dimensions      [0 2 -2 0 0 0 0];

internalField   nonuniform List<scalar> 
8192
(
0.000550417868435
0.000378861557145
0.000293228787063
0.000249092401508
0.000224042823772
0.00020878163899
0.000198891982097
0.00019212979048
0.000187288322447
0.000183683510222
0.000180907856628
0.000178707264717
0.000176916664506
0.000175424912243
0.000174154843172
0.000173051477012
0.000172074778329
0.00017119505648
0.000170389948906
0.000169642385784
0.000168939181106
0.000168270034964
0.000167626812136
0.000167003010736
0.000166393363676
0.00016579353478
0.000165199882678
0.000164609274021
0.000164018932102
0.000163426311093
0.00016282898776
0.000162224565491
0.000161610585483
0.000160984441131
0.00016034329182
0.000159683973641
0.00015900290403
0.000158295978594
0.000157558457953
0.000156784843985
0.000155968744813
0.000155102730238
0.000154178180123
0.000153185132012
0.000152112136562
0.000150946135004
0.000149672376941
0.000148274404006
0.00014673412942
0.000145032049683
0.000143147625004
0.000141059863717
0.000138748134152
0.000136193210112
0.000133378525789
0.000130291581226
0.000126925396846
0.000123279879258
0.000119362931001
0.000115191131744
0.000110789838294
0.000106192610382
0.000101439957896
9.65775184351e-05
9.16538747787e-05
8.67182867909e-05
8.18186090374e-05
7.69995981081e-05
7.2301695023e-05
6.77602675924e-05
6.34052194814e-05
5.92608461867e-05
5.53458322042e-05
5.16733285352e-05
4.82510937461e-05
4.50817185346e-05
4.21629645349e-05
3.94882424734e-05
3.70472296532e-05
3.48266015999e-05
3.28108281744e-05
3.09829757889e-05
2.93254573033e-05
2.78206854476e-05
2.6451601179e-05
2.52020682716e-05
2.40571384887e-05
2.30032036593e-05
2.2028054567e-05
2.11208696042e-05
2.02721530988e-05
1.9473641876e-05
1.87181935008e-05
1.79996676577e-05
1.73128075058e-05
1.6653126743e-05
1.60168046852e-05
1.54005916026e-05
1.48017241405e-05
1.42178513255e-05
1.36469698871e-05
1.30873687131e-05
1.25375808314e-05
1.19963425903e-05
1.14625584481e-05
1.09352711296e-05
1.04136357133e-05
9.89689757011e-06
9.38437291382e-06
8.87543207254e-06
8.36948446121e-06
7.86596560175e-06
7.36432547292e-06
6.86401893154e-06
6.36449806299e-06
5.86520807083e-06
5.36558794902e-06
4.86507981366e-06
4.36315198367e-06
3.85934639745e-06
3.35336758687e-06
2.84524654913e-06
2.33564128218e-06
1.82639888221e-06
1.32164286857e-06
8.29998428049e-07
3.70059722211e-07
3.46058353119e-08
0.000401510791186
0.000337990221602
0.000288287065982
0.000255617256881
0.000233675693564
0.000218473790935
0.000207634000329
0.000199692159902
0.000193723432679
0.000189129632806
0.000185514752982
0.00018261057762
0.000180231402376
0.000178245954855
0.00017655964124
0.000175103094555
0.000173824636525
0.000172685215128
0.000171654937748
0.000170710652369
0.000169834229718
0.000169011322814
0.000168230456899
0.000167482351839
0.000166759410131
0.000166055324606
0.000165364773195
0.000164683177782
0.000164006510036
0.000163331131925
0.000162653660886
0.000161970853264
0.000161279500112
0.000160576330464
0.000159857918213
0.000159120589796
0.000158360329857
0.000157572683175
0.000156752651098
0.000155894582052
0.000154992055973
0.000154037764397
0.000153023388931
0.000151939483739
0.000150775369773
0.00014951905276
0.000148157180246
0.00014667505833
0.000145056752109
0.00014328529808
0.000141343056697
0.000139212231384
0.000136875570605
0.000134317255153
0.000131523948646
0.000128485961218
0.000125198442994
0.000121662495138
0.000117886063647
0.000113884477012
0.000109680505152
0.000105303863991
0.000100790161638
9.61793735606e-05
9.15140177057e-05
8.68372537731e-05
8.21911311835e-05
7.76151544171e-05
7.31452339116e-05
6.88130115024e-05
6.4645487328e-05
6.06648525297e-05
5.68884452752e-05
5.3328783128e-05
4.9993659838e-05
4.68863224894e-05
4.40057529891e-05
4.13470720623e-05
3.89020636406e-05
3.66597967104e-05
3.46073025636e-05
3.27302584741e-05
3.10136296566e-05
2.944223289e-05
2.80011982597e-05
2.66763212021e-05
2.54543078381e-05
2.43229259432e-05
2.32710771795e-05
2.22888085812e-05
2.13672793336e-05
2.04986977834e-05
1.96762399446e-05
1.88939590598e-05
1.81466923733e-05
1.74299701678e-05
1.67399295651e-05
1.60732352586e-05
1.54270075607e-05
1.47987583957e-05
1.41863345916e-05
1.3587868424e-05
1.3001734375e-05
1.24265118485e-05
1.1860952743e-05
1.13039536335e-05
1.07545315498e-05
1.02118032125e-05
9.67496686188e-06
9.14328670246e-06
8.61607929645e-06
8.09270215588e-06
7.572544164e-06
7.05501846216e-06
6.53955798106e-06
6.02561504077e-06
5.51266638041e-06
5.00022683729e-06
4.48787582512e-06
3.97530421359e-06
3.46239276011e-06
2.94934104471e-06
2.43687682112e-06
1.92659685529e-06
1.42152560734e-06
9.27071300625e-07
4.5228848177e-07
7.08314269482e-08
0.000318580591237
0.00029590342081
0.000269897375585
0.00024864444375
0.000232508560101
0.000220181880213
0.000210645764907
0.000203173109535
0.000197242212805
0.00019247404986
0.000188590410279
0.000185385284064
0.000182704841052
0.000180433235029
0.000178482463577
0.000176785085894
0.000175288964107
0.000173953441658
0.000172746545391
0.000171642920413
0.000170622292201
0.000169668310937
0.00016876767464
0.000167909457576
0.000167084590528
0.000166285454608
0.000165505559996
0.000164739288931
0.000163981686938
0.00016322829064
0.000162474982051
0.000161717863663
0.000160953148266
0.000160177058516
0.00015938573256
0.000158575133146
0.000157740957401
0.000156878545861
0.000155982789005
0.000155048031118
0.000154067971167
0.000153035562394
0.000151942912718
0.000150781190831
0.00014954054411
0.000148210038393
0.000146777631842
0.000145230199984
0.000143553631446
0.000141733018115
0.000139752963318
0.000137598031135
0.000135253351851
0.000132705387429
0.000129942839944
0.000126957662337
0.000123746100709
0.000120309671884
0.000116655957668
0.000112799091707
0.000108759825047
0.000104565095946
0.000100247092236
9.58418810882e-05
9.13877625573e-05
8.6923557502e-05
8.24870437546e-05
7.811369836e-05
7.38357975103e-05
6.96818540615e-05
6.56763161396e-05
6.18394323963e-05
5.81872081508e-05
5.47314145394e-05
5.14796462509e-05
4.84354494214e-05
4.55985464243e-05
4.29651772419e-05
4.05285555829e-05
3.82794177097e-05
3.62066233489e-05
3.4297762801e-05
3.25397258069e-05
3.09191998683e-05
2.94230778088e-05
2.80387691302e-05
2.67544186219e-05
2.55590439081e-05
2.44426055381e-05
2.3396025305e-05
2.24111661167e-05
2.14807861036e-05
2.05984760918e-05
1.9758588583e-05
1.89561631705e-05
1.81868528646e-05
1.74468533082e-05
1.6732837026e-05
1.60418929673e-05
1.53714722211e-05
1.47193393025e-05
1.40835292986e-05
1.34623099215e-05
1.28541485437e-05
1.22576831803e-05
1.16716974714e-05
1.10950986776e-05
1.05268988102e-05
9.96619802088e-06
9.41217049537e-06
8.86405213082e-06
8.32113042293e-06
7.78273607344e-06
7.2482370312e-06
6.71703486539e-06
6.18856470146e-06
5.66229933644e-06
5.13775975838e-06
4.61453408666e-06
4.0923091307e-06
3.57091940874e-06
3.05042194165e-06
2.53120787276e-06
2.01416845216e-06
1.50093777785e-06
9.94186004618e-07
4.97411462064e-07
8.07682107261e-08
0.000274055354844
0.000265650862424
0.000251439839683
0.000237628647707
0.000226182167186
0.000216890488469
0.00020930152274
0.000203047452283
0.000197850385105
0.000193497863255
0.00018982413385
0.000186698075739
0.000184015151336
0.000181691651799
0.000179660347617
0.000177867098643
0.00017626817677
0.000174828142782
0.000173518161729
0.000172314666556
0.00017119829759
0.000170153059917
0.000169165652209
0.000168224930341
0.000167321476726
0.000166447252645
0.000165595315553
0.000164759587371
0.000163934662615
0.000163115647398
0.000162298021394
0.000161477518889
0.000160650023843
0.000159811474225
0.000158957772938
0.000158084702922
0.000157187844172
0.000156262491192
0.000155303569509
0.000154305550769
0.000153262366185
0.000152167319347
0.000151013000075
0.000149791202858
0.000148492854892
0.00014710796155
0.000145625579613
0.0001440338325
0.000142319984898
0.000140470598104
0.000138471789014
0.000136309615954
0.000133970609362
0.000131442455496
0.000128714823294
0.000125780301151
0.000122635381427
0.000119281402842
0.000115725337112
0.000111980295055
0.000108065632798
0.000104006571397
9.98333057746e-05
9.55796701375e-05
9.12815217832e-05
8.69750672238e-05
8.26953646243e-05
7.84751678035e-05
7.43441480537e-05
7.0328453196e-05
6.64505085781e-05
6.27289485736e-05
5.9178599768e-05
5.58104823912e-05
5.26318362515e-05
4.96462033578e-05
4.68536043071e-05
4.42508337783e-05
4.18318759649e-05
3.95884160303e-05
3.7510404627e-05
3.55866266928e-05
3.380522997e-05
3.21541817959e-05
3.06216370016e-05
2.91962138549e-05
2.78671841738e-05
2.6624590078e-05
2.54593015269e-05
2.43630292232e-05
2.33283053475e-05
2.23484429805e-05
2.14174822649e-05
2.05301298191e-05
1.96816956457e-05
1.8868030879e-05
1.80854681441e-05
1.73307659789e-05
1.66010577215e-05
1.58938053252e-05
1.52067578354e-05
1.45379145415e-05
1.38854922681e-05
1.32478966558e-05
1.2623696832e-05
1.20116033066e-05
1.14104485235e-05
1.08191699573e-05
1.02367952646e-05
9.66242946827e-06
9.09524379341e-06
8.53446625352e-06
7.97937375317e-06
7.42928597727e-06
6.88356104983e-06
6.34159350355e-06
5.80281489899e-06
5.26669810893e-06
4.73276626859e-06
4.20060836846e-06
3.66990396341e-06
3.14046128797e-06
2.61227463537e-06
2.08560817718e-06
1.5610999079e-06
1.03978118314e-06
5.22435884874e-07
8.23626015684e-08
0.000246468855524
0.000244474872751
0.000236650500831
0.000227434866136
0.000219133446397
0.000212083997617
0.000206129793499
0.000201065651675
0.000196723279049
0.000192972986691
0.000189713464977
0.000186863414205
0.000184356165496
0.000182136314656
0.000180157496534
0.000178380783993
0.000176773445738
0.000175307933578
0.000173961035499
0.000172713160546
0.000171547733915
0.000170450686176
0.000169410022908
0.000168415462808
0.000167458133521
0.000166530315849
0.000165625228053
0.000164736843248
0.000163859734048
0.000162988938584
0.000162119843056
0.000161248079198
0.000160369432764
0.000159479759096
0.00015857490416
0.000157650629155
0.00015670253687
0.000155725998519
0.000154716079825
0.000153667465761
0.000152574383548
0.000151430524389
0.000150228964982
0.000148962091309
0.000147621528481
0.000146198082853
0.000144681705075
0.000143061486539
0.000141325705317
0.000139461942265
0.000137457291114
0.000135298688278
0.000132973385271
0.000130469578439
0.000127777193875
0.000124888801405
0.000121800600817
0.00011851339227
0.000115033414592
0.00011137291788
0.000107550335251
0.000103589945588
9.95209836766e-05
9.53762592562e-05
9.11904648063e-05
8.69984319224e-05
8.28336141732e-05
7.87269847933e-05
7.47063670506e-05
7.07961260155e-05
6.70170933395e-05
6.33865849189e-05
5.99184233176e-05
5.66229361308e-05
5.35069497611e-05
5.05738268189e-05
4.78235989175e-05
4.52532294816e-05
4.28570099438e-05
4.06270615962e-05
3.85538934406e-05
3.66269607016e-05
3.48351759634e-05
3.31673411928e-05
3.16124860384e-05
3.01601128105e-05
2.88003578083e-05
2.75240838389e-05
2.63229194905e-05
2.51892598847e-05
2.41162409881e-05
2.30976973149e-05
2.21281100942e-05
2.12025512603e-05
2.03166266691e-05
1.94664210328e-05
1.86484458496e-05
1.78595912734e-05
1.70970821228e-05
1.63584382379e-05
1.56414389038e-05
1.49440912442e-05
1.42646021333e-05
1.36013534359e-05
1.29528800982e-05
1.2317850905e-05
1.16950514624e-05
1.10833692697e-05
1.04817805e-05
9.88933841846e-06
9.30516312944e-06
8.72843265827e-06
8.15837514148e-06
7.59426222658e-06
7.03540356976e-06
6.48114267643e-06
5.93085417288e-06
5.38394304494e-06
4.83984638414e-06
4.29803889219e-06
3.75804378227e-06
3.21945176656e-06
2.6819505533e-06
2.14536248985e-06
1.60966047164e-06
1.07482519924e-06
5.40122945923e-07
8.26192851035e-08
0.000228153215271
0.000229015043653
0.000224942375217
0.000218782492285
0.000212666824966
0.000207216962226
0.000202483230123
0.000198370518769
0.000194772028428
0.000191599089627
0.000188782183322
0.000186266388311
0.000184007185519
0.000181967560851
0.000180116156557
0.000178426090216
0.000176874161646
0.000175440278443
0.000174107006945
0.000172859200195
0.000171683678478
0.000170568950098
0.000169504965684
0.000168482901796
0.000167494970563
0.000166534252482
0.000165594549615
0.000164670256591
0.000163756247458
0.00016284777421
0.000161940375498
0.000161029795439
0.000160111909601
0.000159182655228
0.000158237965036
0.000157273703195
0.000156285602125
0.000155269199035
0.000154219771126
0.000153132268762
0.000152001246015
0.000150820788582
0.000149584439516
0.000148285124282
0.000146915077839
0.000145465778523
0.000143927896004
0.000142291264374
0.000140544895692
0.000138677054768
0.000136675420872
0.000134527366044
0.000132220379355
0.000129742660105
0.000127083886858
0.000124236143586
0.000121194950133
0.000117960307639
0.0001145376355
0.000110938451324
0.000107180634904
0.000103288136116
9.92900538801e-05
9.52191395269e-05
9.11099338449e-05
8.69968569865e-05
8.29126002167e-05
7.88870463008e-05
7.49467125629e-05
7.11145990213e-05
6.74102635778e-05
6.38499435796e-05
6.04466233567e-05
5.72100257474e-05
5.41465652703e-05
5.12593329854e-05
4.85481848445e-05
4.60099804662e-05
4.3638978028e-05
4.14273505667e-05
3.93657627579e-05
3.74439421873e-05
3.56511909997e-05
3.39768051583e-05
3.24103897391e-05
3.09420753349e-05
2.95626499854e-05
2.82636249718e-05
2.70372522001e-05
2.58765086501e-05
2.47750598984e-05
2.37272118196e-05
2.27278566758e-05
2.17724179411e-05
2.08567964509e-05
1.99773195793e-05
1.91306941956e-05
1.83139638538e-05
1.75244701566e-05
1.67598182329e-05
1.60178459701e-05
1.52965967716e-05
1.45942954079e-05
1.39093267121e-05
1.32402167066e-05
1.25856159475e-05
1.19442847253e-05
1.13150799562e-05
1.06969434613e-05
1.0088891518e-05
9.49000543221e-06
8.89942306682e-06
8.31633112667e-06
7.73995819074e-06
7.16956836438e-06
6.60445563667e-06
6.04393896049e-06
5.48735836081e-06
4.93407242554e-06
4.38345795096e-06
3.83491258668e-06
3.28786118702e-06
2.74176397653e-06
2.19611500979e-06
1.65038758788e-06
1.10380083772e-06
5.54653536067e-07
8.31477064039e-08
0.000215301366313
0.000217385200839
0.000215552679098
0.000211506891754
0.0002069969288
0.000202738984491
0.000198922020536
0.00019554018081
0.000192535932985
0.000189848732822
0.000187427484805
0.000185231346737
0.000183227677086
0.000181389864994
0.000179695683749
0.000178126168584
0.000176664877166
0.000175297397869
0.000174011009387
0.000172794430442
0.000171637623282
0.000170531630453
0.00016946843358
0.000168440828111
0.000167442310695
0.000166466977277
0.000165509430561
0.00016456469582
0.000163628145172
0.000162695425833
0.000161762394135
0.00016082505567
0.000159879508975
0.000158921890915
0.000157948323694
0.000156954862485
0.000155937442694
0.000154891825915
0.000153813543643
0.000152697837907
0.000151539598069
0.000150333293313
0.000149072900695
0.000147751829353
0.000146362842508
0.00014489798067
0.000143348491977
0.000141704779364
0.000139956379255
0.000138091992909
0.000136099598546
0.000133966678815
0.000131680601024
0.000129229183376
0.000126601465145
0.000123788670681
0.000120785318204
0.000117590380818
0.000114208365911
0.000110650144921
0.000106933343013
0.000103082104133
9.91261142883e-05
9.50989209344e-05
9.10357986643e-05
8.6971569794e-05
8.29388349349e-05
7.89668976204e-05
7.50813435956e-05
7.13040872615e-05
6.76536345215e-05
6.41453282497e-05
6.0791462948e-05
5.76012586301e-05
5.45807566688e-05
5.17327370546e-05
4.90567554906e-05
4.65493633227e-05
4.42045176741e-05
4.20141357451e-05
3.99687152581e-05
3.80579395585e-05
3.62712047157e-05
3.45980346031e-05
3.30283766958e-05
3.15527899748e-05
3.01625456489e-05
2.88496635182e-05
2.76069045249e-05
2.64277359608e-05
2.53062814352e-05
2.42372639597e-05
2.32159475457e-05
2.22380806077e-05
2.12998429899e-05
2.03977974984e-05
1.95288462077e-05
1.86901914693e-05
1.78793013377e-05
1.70938790449e-05
1.63318361021e-05
1.55912686263e-05
1.48704364881e-05
1.41677449271e-05
1.34817282986e-05
1.28110356627e-05
1.21544179474e-05
1.15107164576e-05
1.08788525175e-05
1.02578180664e-05
9.64666703884e-06
9.04450738818e-06
8.45049362072e-06
7.86381974126e-06
7.28371252401e-06
6.70942507841e-06
6.14023071718e-06
5.57541722448e-06
5.01428167437e-06
4.45612595885e-06
3.90025283127e-06
3.34596093416e-06
2.79253305949e-06
2.23920041524e-06
1.68503803942e-06
1.12869549549e-06
5.67833117017e-07
8.47445682601e-08
0.000205866193413
0.000208409875351
0.000207923124289
0.00020535881521
0.000202064683526
0.000198734594802
0.00019563331599
0.000192822740789
0.000190288280922
0.00018799420083
0.00018590402081
0.000183986418362
0.000182215857239
0.00018057165826
0.000179036855095
0.000177597239068
0.000176240656793
0.000174956520126
0.000173735469445
0.000172569139879
0.000171449993899
0.000170371195823
0.000169326512694
0.000168310231987
0.00016731709041
0.000166342210415
0.000165381042386
0.000164429311204
0.000163482968061
0.000162538141416
0.000161591091344
0.000160638167905
0.000159675769976
0.000158700304186
0.000157708143897
0.000156695587519
0.000155658815359
0.000154593844207
0.000153496478714
0.000152362258663
0.000151186401124
0.000149963736629
0.000148688638593
0.000147354945753
0.000145955878086
0.000144483948263
0.000142930873003
0.000141287492602
0.000139543712401
0.000137688487673
0.000135709882605
0.000133595243759
0.000131331535015
0.000128905880135
0.000126306344703
0.000123522958292
0.000120548931921
0.000117381973743
0.000114025556173
0.000110489943778
0.000106792752974
0.000102958799155
9.9019046895e-05
9.50086706976e-05
9.09645296506e-05
8.69225953792e-05
8.29159437299e-05
7.8973676378e-05
7.51206840026e-05
7.13779567702e-05
6.77630860222e-05
6.42906567572e-05
6.09724074478e-05
5.78171678807e-05
5.48306719683e-05
5.20153839147e-05
4.93704713312e-05
4.68920093142e-05
4.45734232908e-05
4.24061072357e-05
4.03801141933e-05
3.84848162855e-05
3.67094603347e-05
3.50435845318e-05
3.3477295175e-05
3.20014237269e-05
3.0607592845e-05
2.92882199336e-05
2.80364818795e-05
2.68462586775e-05
2.57120678999e-05
2.46289976299e-05
2.35926421753e-05
2.25990428594e-05
2.16446347469e-05
2.07261994846e-05
1.98408239039e-05
1.89858639234e-05
1.8158913121e-05
1.73577754283e-05
1.65804413504e-05
1.58250672496e-05
1.50899572057e-05
1.43735471029e-05
1.36743905661e-05
1.29911464906e-05
1.23225678742e-05
1.16674917655e-05
1.10248300999e-05
1.03935612843e-05
9.77272234376e-06
9.1614015237e-06
8.5587311913e-06
7.96388095564e-06
7.37605087844e-06
6.79446472334e-06
6.21836313951e-06
5.6469967218e-06
5.07961873785e-06
4.51547707453e-06
3.95380407133e-06
3.39380088715e-06
2.83460806119e-06
2.27524321306e-06
1.71446648331e-06
1.15050873343e-06
5.8060784081e-07
8.78695850378e-08
0.000198679999753
0.000201330861024
0.000201651862097
0.000200130025262
0.000197767543074
0.000195179044474
0.000192656685836
0.000190307414583
0.000188151730751
0.000186176449359
0.000184358706951
0.000182675495141
0.00018110673228
0.000179635737302
0.00017824881207
0.000176934626288
0.000175683654154
0.000174487728689
0.000173339711331
0.000172233254057
0.000171162629383
0.000170122607753
0.000169108367007
0.000168115423169
0.000167139575272
0.000166176859393
0.000165223508782
0.00016427591798
0.000163330611556
0.000162384210349
0.000161433399522
0.000160474900688
0.000159505442199
0.00015852172883
0.000157520410562
0.000156498049817
0.000155451086492
0.000154375799975
0.000153268267239
0.000152124315915
0.000150939471174
0.000149708895066
0.000148427316981
0.000147088954037
0.000145687420728
0.000144215628258
0.000142665676244
0.000141028743131
0.000139294987848
0.000137453484007
0.000135492219897
0.000133398210958
0.000131157783246
0.000128757089979
0.000126182910854
0.000123423749211
0.000120471187486
0.000117321397913
0.000113976646723
0.000110446577029
0.00010674899795
0.000102909856999
9.89621096011e-05
9.49434346552e-05
9.08931655981e-05
8.68491663486e-05
8.28454898733e-05
7.89113026415e-05
7.50709122021e-05
7.13444390656e-05
6.774862493e-05
6.42973972851e-05
6.10020665029e-05
5.78711998993e-05
5.4910315155e-05
5.21215819898e-05
4.95037123347e-05
4.70521505076e-05
4.47595698461e-05
4.26165860185e-05
4.06125482704e-05
3.87362767526e-05
3.69766585419e-05
3.53230687102e-05
3.37656252932e-05
3.22953103432e-05
3.09039960123e-05
2.9584410863e-05
2.83300736255e-05
2.71352130558e-05
2.59946855576e-05
2.49038970275e-05
2.38587320726e-05
2.28554916229e-05
2.18908388853e-05
2.0961752945e-05
2.00654891583e-05
1.91995453675e-05
1.83616330905e-05
1.75496528618e-05
1.67616730726e-05
1.5995911695e-05
1.52507204314e-05
1.45245708432e-05
1.38160421477e-05
1.31238103593e-05
1.24466385623e-05
1.17833680739e-05
1.11329103493e-05
1.04942394368e-05
9.86638487476e-06
9.24842486716e-06
8.63947964926e-06
8.0387048928e-06
7.44528506125e-06
6.85842654514e-06
6.2773504264e-06
5.70128455066e-06
5.12945440627e-06
4.56107171073e-06
3.9953185123e-06
3.43132213426e-06
2.8681115098e-06
2.30453654332e-06
1.73911907765e-06
1.16979460898e-06
5.93528717441e-07
9.28268274867e-08
0.000193044497781
0.000195643953729
0.000196446037545
0.000195658553748
0.000194012247255
0.000192023716897
0.000189980665182
0.000188015003806
0.000186173228192
0.000184461476009
0.000182869591677
0.000181382561315
0.000179985365374
0.000178664697626
0.000177409313142
0.000176209845734
0.000175058470727
0.000173948566945
0.000172874430698
0.000171831051481
0.000170813942721
0.000169819016373
0.000168842490362
0.000167880819732
0.000166930644434
0.000165988748574
0.00016505202742
0.000164117459802
0.000163182084779
0.000162242977305
0.000161297224211
0.000160341905224
0.000159374071109
0.00015839072108
0.000157388778872
0.000156365066887
0.000155316277738
0.00015423894238
0.000153129393838
0.000151983725326
0.000150797741296
0.000149566899683
0.000148286243352
0.000146950318626
0.000145553078884
0.00014408777198
0.000142546811956
0.000140921639165
0.000139202579174
0.00013737872108
0.000135437850362
0.000133366489795
0.000131150120167
0.000128773662923
0.000126222297662
0.000123482648899
0.000120544309488
0.000117401589838
0.000114055313816
0.000110514423732
0.000106797078097
0.000102930819619
9.89513729933e-05
9.48999122593e-05
9.08192450897e-05
8.67499207198e-05
8.2727434022e-05
7.87811772549e-05
7.49348605243e-05
7.12076853588e-05
6.76155456967e-05
6.41717883717e-05
6.08874302093e-05
5.77709287873e-05
5.48277069604e-05
5.20596844113e-05
4.94650585659e-05
4.70384831671e-05
4.47716464166e-05
4.26541195103e-05
4.06742859725e-05
3.88201813713e-05
3.70801402976e-05
3.5443221369e-05
3.38994338741e-05
3.24398146561e-05
3.10564068724e-05
2.97421836562e-05
2.84909473194e-05
2.72972234585e-05
2.61561606779e-05
2.50634409572e-05
2.40152021918e-05
2.3007972607e-05
2.20386158348e-05
2.11042851782e-05
2.02023855544e-05
1.93305417814e-05
1.84865720307e-05
1.76684654876e-05
1.68743634126e-05
1.61025429639e-05
1.53514032511e-05
1.46194531974e-05
1.39053008661e-05
1.32076439669e-05
1.25252613116e-05
1.18570050222e-05
1.12017933283e-05
1.05586038055e-05
9.9264669294e-06
9.30445981846e-06
8.69170004982e-06
8.08733941443e-06
7.49055746367e-06
6.90055464256e-06
6.31654471595e-06
5.73774599833e-06
5.16337054302e-06
4.59260974143e-06
4.02461346834e-06
3.45845745053e-06
2.89308925643e-06
2.32723664459e-06
1.75925446439e-06
1.18688561955e-06
6.06936670368e-07
9.98204034485e-08
0.000188523705583
0.00019100537748
0.000192088494827
0.000191818280332
0.000190722348544
0.000189221107419
0.000187579769587
0.000185939698628
0.000184364551138
0.000182875789972
0.000181474509256
0.00018015328759
0.000178902065052
0.000177710788025
0.00017657042614
0.000175473224166
0.000174412627721
0.000173383094962
0.000172379890282
0.000171398898798
0.000170436473432
0.000169489314509
0.000168554377335
0.000167628802065
0.000166709860566
0.000165794915758
0.000164881389923
0.000163966740268
0.000163048437748
0.000162123947415
0.000161190709049
0.000160246122524
0.000159287530935
0.000158312202991
0.000157317314075
0.000156299925332
0.000155256960101
0.000154185176808
0.000153081137292
0.000151941169186
0.000150761320675
0.000149537305473
0.000148264435397
0.000146937537421
0.000145550851836
0.000144097908255
0.000142571377488
0.000140962900363
0.000139262900977
0.000137460403025
0.000135542885422
0.000133496237323
0.000131304899479
0.000128952298779
0.000126421679679
0.000123697393304
0.000120766621181
0.000117621411169
0.000114260825335
0.000110692944462
0.000106936378617
0.00010302074201
9.8985418102e-05
9.48762552582e-05
9.07407254425e-05
8.66229619174e-05
8.2560345493e-05
7.85825372293e-05
7.47124930229e-05
7.09683384394e-05
6.73650673516e-05
6.39155139904e-05
6.06305584443e-05
5.75187401602e-05
5.45855478166e-05
5.18327192838e-05
4.92578778738e-05
4.68547034577e-05
4.46136308122e-05
4.25228869598e-05
4.05696058092e-05
3.87407987539e-05
3.7024061442e-05
3.54079977755e-05
3.3882407109e-05
3.24383051463e-05
3.10678458647e-05
2.97641959891e-05
2.85213958432e-05
2.73342257876e-05
2.61980873865e-05
2.51089022304e-05
2.40630280485e-05
2.30571901777e-05
2.20884259985e-05
2.11540399489e-05
2.02515670362e-05
1.93787430723e-05
1.85334802281e-05
1.77138467603e-05
1.69180500393e-05
1.61444221666e-05
1.53914076565e-05
1.46575527371e-05
1.39414959535e-05
1.32419597854e-05
1.25577430827e-05
1.18877141227e-05
1.12308041566e-05
1.05860012991e-05
9.95234465817e-06
9.32891857368e-06
8.71484685837e-06
8.10928688279e-06
7.51142333574e-06
6.92046138138e-06
6.33561882656e-06
5.75611662927e-06
5.18116666709e-06
4.60995486899e-06
4.04161648389e-06
3.47519794563e-06
2.90959627315e-06
2.34346222929e-06
1.7750496715e-06
1.20199655181e-06
6.21043170305e-07
1.08976160584e-07
0.000184834259611
0.000187175199123
0.000188415769819
0.000188509458093
0.000187835877393
0.00018673035638
0.000185427355219
0.000184066940969
0.000182722369045
0.000181426277877
0.000180189110046
0.000179010325111
0.000177884630896
0.000176805197428
0.000175765179579
0.000174758344982
0.000173779255249
0.000172823241245
0.000171886296471
0.000170964949373
0.000170056141993
0.000169157125467
0.000168265374616
0.000167378520195
0.000166494296018
0.000165610497934
0.000164724951778
0.000163835489887
0.000162939929794
0.000162036055741
0.000161121602103
0.000160194240279
0.000159251564474
0.000158291076971
0.000157310172263
0.000156306119411
0.000155276041872
0.000154216893938
0.000153125432625
0.000151998183585
0.000150831399088
0.000149621005586
0.000148362537583
0.000147051053761
0.000145681030453
0.00014424622713
0.000142739518925
0.000141152693645
0.000139476216569
0.000137698978317
0.000135808061304
0.000133788590796
0.000131623774115
0.00012929526541
0.000126784000457
0.000124071599384
0.000121142327339
0.000117985472232
0.000114597909966
0.000110986593556
0.000107170610208
0.000103182136244
9.9065263628e-05
9.48719772289e-05
9.06558961976e-05
8.64658085608e-05
8.23414122951e-05
7.83125299933e-05
7.44010327839e-05
7.06236977718e-05
6.69945236804e-05
6.3525909309e-05
6.02287955434e-05
5.71120512869e-05
5.41814432091e-05
5.14386215785e-05
4.88805644756e-05
4.64997496955e-05
4.42850289623e-05
4.22229274377e-05
4.02990042767e-05
3.84989866351e-05
3.68095418495e-05
3.52186893819e-05
3.37159314769e-05
3.22922021008e-05
3.0939720095e-05
2.96518069905e-05
2.84227054802e-05
2.72474165381e-05
2.6121561659e-05
2.50412704514e-05
2.40030908081e-05
2.30039179454e-05
2.20409385593e-05
2.11115868429e-05
2.02135096443e-05
1.93445386452e-05
1.85026678893e-05
1.76860354112e-05
1.68929080003e-05
1.61216683831e-05
1.53708042725e-05
1.46388988712e-05
1.39246225064e-05
1.32267251512e-05
1.25440296337e-05
1.18754253783e-05
1.12198625454e-05
1.05763464556e-05
9.94393218866e-06
9.32171924878e-06
8.70884617123e-06
8.1044849142e-06
7.5078348224e-06
6.91811584637e-06
6.33456053006e-06
5.75640398617e-06
5.18287059191e-06
4.61315532677e-06
4.0463963687e-06
3.48163354996e-06
2.91774446628e-06
2.35334687834e-06
1.7866544395e-06
1.21527674832e-06
6.35968999838e-07
1.20350746348e-07
0.000181784929697
0.000183982112248
0.000185303123305
0.000185651968731
0.000185301914179
0.000184517170719
0.000183499343306
0.000182380499654
0.000181237597624
0.000180110634194
0.000179017327845
0.000177963053697
0.000176946918113
0.000175965218206
0.00017501329095
0.000174086429341
0.000173180283539
0.000172290991452
0.000171415176394
0.000170549886598
0.000169692515575
0.000168840722441
0.000167992360539
0.000167145417091
0.000166297963838
0.000165448117414
0.00016459400762
0.000163733754276
0.000162865446112
0.000161987121057
0.000161096751665
0.000160192232021
0.000159271364637
0.000158331847089
0.00015737125779
0.000156387040246
0.000155376485054
0.000154336708733
0.000153264628244
0.00015215692963
0.000151010028702
0.000149820020929
0.000148582616724
0.000147293057098
0.000145946003325
0.000144535392952
0.00014305425391
0.000141494469657
0.000139846493247
0.00013809902007
0.000136238651794
0.00013424962137
0.000132113700188
0.000129810461799
0.000127318101309
0.000124614961492
0.000121681774617
0.000118504447782
0.000115077115001
0.000111405196127
0.000107508164721
0.000103421250221
9.91945201742e-05
9.48879699271e-05
9.05632836427e-05
8.6275235592e-05
8.2066258858e-05
7.79660212432e-05
7.39947561135e-05
7.01674965784e-05
6.64971269927e-05
6.29957196621e-05
5.96745349296e-05
5.65430940449e-05
5.36077197037e-05
5.08700964731e-05
4.83264591867e-05
4.59677814012e-05
4.37809071555e-05
4.17502145051e-05
3.98593004084e-05
3.80923143622e-05
3.64347958813e-05
3.48740544061e-05
3.33992186857e-05
3.2001092759e-05
3.0671925959e-05
2.9405165681e-05
2.81952294875e-05
2.70373115192e-05
2.5927225846e-05
2.4861283393e-05
2.38361969009e-05
2.28490081349e-05
2.18970322276e-05
2.09778149503e-05
2.00890996445e-05
1.92288013149e-05
1.83949860415e-05
1.7585854334e-05
1.6799727439e-05