/*--------------------------------*- C++ -*----------------------------------*\
  =========                 |
  \\      /  F ield         | OpenFOAM: The Open Source CFD Toolbox
   \\    /   O peration     | Website:  https://openfoam.org
    \\  /    A nd           | Version:  7
     \\/     M anipulation  |
\*---------------------------------------------------------------------------*/
FoamFile
{
    version     2.0;
    format      ascii;
    class       surfaceScalarField;
    location    "3240";
    object      phi;
}
// * * * * * * * * * * * * * * * * * * * * * * * * * * * * * * * * * * * * * //

dimensions      [0 3 -1 0 0 0 0];

internalField   nonuniform List<scalar> 
16192
(
6.92948740586e-10
2.44551259414e-10
4.9361579125e-10
1.99332947441e-10
3.6488257695e-10
1.28733212031e-10
2.82275314609e-10
8.26072597769e-11
2.27599936931e-10
5.46753747439e-11
1.89916876798e-10
3.76830569944e-11
1.62887315235e-10
2.70295583162e-11
1.4280162465e-10
2.00856872908e-11
1.27427737219e-10
1.53738840966e-11
1.15374726768e-10
1.20530071037e-11
1.05743108926e-10
9.63161447095e-12
9.79298587389e-11
7.81324681726e-12
9.15170004732e-11
6.41285487906e-12
8.62060569035e-11
5.31094019522e-12
8.17782583254e-11
4.42779519531e-12
7.80696219048e-11
3.70863306396e-12
7.49548669e-11
3.11475165164e-12
7.23367356603e-11
2.61812793051e-12
7.01387161353e-11
2.19801623526e-12
6.82999635886e-11
1.83874932323e-12
6.67716796806e-11
1.52828072535e-12
6.5514480818e-11
1.25719577528e-12
6.44964518747e-11
1.01802592638e-12
6.36916851202e-11
8.04763871684e-13
6.30791681478e-11
6.12514201003e-13
6.26419280768e-11
4.37237485487e-13
6.23663659153e-11
2.75559742903e-13
6.22417350924e-11
1.24628657847e-13
6.22597295466e-11
-1.79963797076e-14
6.24141569972e-11
-1.54429036429e-13
6.27006771617e-11
-2.86521419055e-13
6.31165916711e-11
-4.15915318486e-13
6.36606735815e-11
-5.44082276363e-13
6.43330273381e-11
-6.72353550958e-13
6.5134969675e-11
-8.01941557486e-13
6.60689244183e-11
-9.33953248288e-13
6.71383223026e-11
-1.06939566977e-12
6.83474984135e-11
-1.20917302491e-12
6.97015768762e-11
-1.354074505e-12
7.12063331674e-11
-1.50475130532e-12
7.28680204779e-11
-1.66168130874e-12
7.46931468772e-11
-1.82511922947e-12
7.66881856427e-11
-1.99503046405e-12
7.88592019928e-11
-2.17100678079e-12
8.12113762108e-11
-2.35216345573e-12
8.37484070433e-11
-2.53701876961e-12
8.6471780589e-11
-2.72336030961e-12
8.93799013512e-11
-2.90810628536e-12
9.24670932746e-11
-3.08717639662e-12
9.57225027875e-11
-3.2553929163e-12
9.91289603419e-11
-3.40644015018e-12
1.02661893523e-10
-3.53291500257e-12
1.06288415583e-10
-3.62650344821e-12
1.09966746346e-10
-3.67831180977e-12
1.13646134018e-10
-3.67936880711e-12
1.17267443167e-10
-3.62129053092e-12
1.20764531574e-10
-3.49707055014e-12
1.24066469973e-10
-3.30192151898e-12
1.27100547649e-10
-3.03406234337e-12
1.29795881558e-10
-2.69532034837e-12
1.32087308048e-10
-2.29141526906e-12
1.33919135417e-10
-1.83181865114e-12
1.35248290994e-10
-1.32914985851e-12
1.3604646096e-10
-7.98167307985e-13
1.36300978602e-10
-2.54518431973e-13
1.36014452906e-10
2.8652152429e-13
1.352033564e-10
8.11088696044e-13
1.33895954113e-10
1.30739105977e-12
1.32129968912e-10
1.76597047801e-12
1.29950310508e-10
2.17964059995e-12
1.27407051744e-10
2.54323799539e-12
1.2455369662e-10
2.85333197609e-12
1.21445677267e-10
3.10799408223e-12
1.18138983211e-10
3.30666732991e-12
1.14688837631e-10
3.45011769466e-12
1.11148392945e-10
3.54041628379e-12
1.07567473494e-10
3.58089078296e-12
1.03991444348e-10
3.57600075996e-12
1.00460297008e-10
3.53111939437e-12
9.7008033406e-11
3.45223652443e-12
9.36623876232e-11
3.34561962961e-12
9.04448836602e-11
3.21747904424e-12
8.73711822268e-11
3.07367771713e-12
8.44516470984e-11
2.91951282759e-12
8.16920471112e-11
2.7595790027e-12
7.90943182209e-11
2.59770936197e-12
7.66573196685e-11
2.43698033589e-12
7.43775399931e-11
2.27976285988e-12
7.22497225771e-11
2.12780183009e-12
7.02673991641e-11
1.98230911374e-12
6.84233275392e-11
1.84405842797e-12
6.67098405878e-11
1.71347489563e-12
6.51191148688e-11
1.59071461781e-12
6.36433720393e-11
1.47573271377e-12
6.22750234472e-11
1.36833927947e-12
6.10067705947e-11
1.26824437347e-12
5.9831669745e-11
1.1750930302e-12
5.87431705e-11
1.08849211927e-12
5.77351336617e-11
1.00803024292e-12
5.68018352929e-11
9.3329234441e-13
5.59379597639e-11
8.638699233e-13
5.51385864689e-11
7.99368156174e-13
5.43991712014e-11
7.39410454346e-13
5.37155253555e-11
6.83641414191e-13
5.30837927677e-11
6.31728406217e-13
5.25004263803e-11
5.83362519237e-13
5.19621637754e-11
5.38258927783e-13
5.14660030922e-11
4.96157266907e-13
5.1009177816e-11
4.56822006019e-13
5.05891313933e-11
4.20043374266e-13
5.02034896036e-11
3.85638855102e-13
4.98500309775e-11
3.53455886023e-13
4.95266523834e-11
3.23375946597e-13
4.92313289733e-11
2.9532094068e-13
4.89620640979e-11
2.69262488334e-13
4.87168261732e-11
2.45235710856e-13
4.84934648347e-11
2.23359209297e-13
4.82895983039e-11
2.03864585085e-13
4.81024563058e-11
1.87140157308e-13
4.79286574106e-11
1.73797269302e-13
4.77638833736e-11
1.6477255968e-13
4.76023926903e-11
1.61489473281e-13
4.74362755629e-11
1.66116117737e-13
4.72543033264e-11
1.81971523181e-13
4.70401943399e-11
2.14108450023e-13
4.67704070893e-11
2.69786932772e-13
4.64134475354e-11
3.56959521791e-13
4.5794236825e-13
9.53435574451e-10
2.28615683481e-10
8.59676781194e-10
2.93091735973e-10
7.45084029243e-10
2.4332595864e-10
6.41795789824e-10
1.85895493189e-10
5.56442402793e-10
1.4002875526e-10
4.87828266615e-10
1.06297186397e-10
4.32938583916e-10
8.19192341037e-11
3.88827017333e-10
6.41972468868e-11
3.5308508663e-10
5.11158077586e-11
3.23859883442e-10
4.12782032187e-11
2.99754312811e-10
3.37371780021e-11
2.79717487635e-10
2.78500648855e-11
2.62954193372e-10
2.31761420247e-11
2.48856739798e-10
1.94083866674e-11
2.3695547419e-10
1.63290537137e-11
2.26883268413e-10
1.37808317943e-11
2.18350032373e-10
1.16479806875e-11
2.1112430793e-10
9.84384544656e-12
2.05019848235e-10
8.30246908207e-12
1.99885722638e-10
6.97286819413e-12
1.95598934478e-10
5.81506228576e-12
1.92058848968e-10
4.79727486795e-12
1.89182939119e-10
3.89392955016e-12
1.86903503509e-10
3.08419351874e-12
1.85165108353e-10
2.35090367689e-12
1.83922576459e-10
1.67976406721e-12
1.8313939273e-10
1.05873856221e-12
1.82786430949e-10
4.77586035323e-13
1.82840929405e-10
-7.24986809716e-14
1.83285661069e-10
-5.99163866455e-13
1.84108254582e-10
-1.10911735046e-12
1.85300633834e-10
-1.60829609574e-12
1.86858547868e-10
-2.10199686068e-12
1.88781167662e-10
-2.59497275358e-12
1.91070727492e-10
-3.09149955825e-12
1.93732191287e-10
-3.59541379586e-12
1.9677292281e-10
-4.11012242262e-12
2.00202339097e-10
-4.63858283117e-12
2.04031523071e-10
-5.18325019079e-12
2.08272770401e-10
-5.74598835594e-12
2.12939040876e-10
-6.32793944132e-12
2.18043283434e-10
-6.92934722371e-12
2.23597599532e-10
-7.54932975147e-12
2.29612210733e-10
-8.1855988169e-12
2.36094196146e-10
-8.83412739526e-12
2.43045974226e-10
-9.48877303576e-12
2.50463514478e-10
-1.01408745463e-11
2.58334289607e-10
-1.07788532607e-11
2.66635009937e-10
-1.13878666862e-11
2.75329230668e-10
-1.19495818931e-11
2.84364977232e-10
-1.24421536228e-11
2.93672601191e-10
-1.28405048263e-11
3.03163138808e-10
-1.31170064014e-11
3.12727495226e-10
-1.3242633465e-11
3.22236790462e-10
-1.31886298451e-11
3.31544175045e-10
-1.29286420443e-11
3.40488326963e-10
-1.24411913201e-11
3.48898686299e-10
-1.171225228e-11
3.56602262555e-10
-1.07376134395e-11
3.63431598897e-10
-9.52463558058e-12
3.69233222831e-10
-8.09302291264e-12
3.73875728057e-10
-6.47431290366e-12
3.77256569932e-10
-4.70998667451e-12
3.7930678651e-10
-2.84838503269e-12
3.79993166859e-10
-9.40906499035e-13
3.7931782801e-10
9.61846050196e-13
3.77315592794e-10
2.81330290928e-12
3.74049864751e-10
4.57309172268e-12
3.69607756103e-10
6.20804565853e-12
3.64095111235e-10
7.69224658686e-12
3.57631825763e-10
9.00647980311e-12
3.50347608498e-10
1.01375017356e-11
3.42378140559e-10
1.10774114815e-11
3.3386150667e-10
1.18232486606e-11
3.24934785584e-10
1.23767849887e-11
3.15730771732e-10
1.2744376024e-11
3.06374896312e-10
1.29367124012e-11
2.96982497153e-10
1.29683471429e-11
2.87656610142e-10
1.28569550769e-11
2.78486431064e-10
1.26223662203e-11
2.69546523754e-10
1.22854797221e-11
2.60896767924e-10
1.18671901258e-11
2.5258295775e-10
1.13874456638e-11
2.44637911424e-10
1.08645196013e-11
2.37082924455e-10
1.03145290256e-11
2.29929406292e-10
9.75119323106e-12
2.23180559304e-10
9.18579553494e-12
2.16832994917e-10
8.62729793753e-12
2.10878213145e-10
8.0825565835e-12
2.05303905755e-10
7.5565917108e-12
2.00095065322e-10
7.05287608235e-12
1.95234903159e-10
6.57361621579e-12
1.90705588024e-10
6.12001063183e-12
1.8648882668e-10
5.69247657723e-12
1.82566307424e-10
5.29084249056e-12
1.78920030383e-10
4.91450673208e-12
1.7553254436e-10
4.56256554656e-12
1.72387110157e-10
4.23391392964e-12
1.69467805231e-10
3.9273237225e-12
1.66759584225e-10
3.64150280638e-12
1.64248305115e-10
3.37513924181e-12
1.61920730803e-10
3.1269334005e-12
1.59764511797e-10
2.89562098754e-12
1.57768156256e-10
2.67998906535e-12
1.55920990111e-10
2.47888712914e-12
1.54213111057e-10
2.29123462223e-12
1.52635337046e-10
2.11602636042e-12
1.51179151305e-10
1.95233681628e-12
1.49836642981e-10
1.79932443925e-12
1.48600443982e-10
1.65623681067e-12
1.47463659723e-10
1.52241780426e-12
1.46419792886e-10
1.39731770241e-12
1.45462656268e-10
1.2805077697e-12
1.44586271906e-10
1.1717007791e-12
1.43784750285e-10
1.07077980805e-12
1.43052144015e-10
9.77837960985e-13
1.4238226651e-10
8.93232939037e-13
1.41768466393e-10
8.17661250811e-13
1.41203344751e-10
7.52258654742e-13
1.40678404847e-10
6.98734432767e-13
1.40183627743e-10
6.59547324315e-13
1.39706990748e-10
6.38124633233e-13
1.39234004772e-10
6.39100751666e-13
1.38747512303e-10
6.68463235786e-13
1.38228416891e-10
7.33203667913e-13
1.37659076793e-10
8.39127249166e-13
1.3703450261e-10
9.81534015774e-13
1.11143527807e-12
9.76227054492e-10
1.89888626722e-10
9.62929351446e-10
3.06389432481e-10
9.05887058167e-10
3.00368245054e-10
8.33255865634e-10
2.58526678677e-10
7.60033965708e-10
2.13250647821e-10
6.92641364479e-10
1.73689780078e-10
6.33159005496e-10
1.41401585425e-10
5.81700973826e-10
1.15655270838e-10
5.37592291708e-10
9.52244820984e-11
4.9991769043e-10
7.89527966952e-11
4.67760077161e-10
6.58947834311e-11
4.40292369358e-10
5.5317764846e-11
4.168030532e-10
4.66654503159e-11
3.96693761771e-10
3.95176702496e-11
3.79466575001e-10
3.35562326328e-11
3.64708880396e-10
2.8538518594e-11
3.52079008402e-10
2.42778448985e-11
3.412937508e-10
2.06290953433e-11
3.32117954714e-10
1.74782575171e-11
3.24356023734e-10
1.47347916435e-11
3.17845043068e-10
1.23260355168e-11
3.12449238832e-10
1.01930718441e-11
3.08055512284e-10
8.28764899262e-12
3.045698337e-10
6.56986524573e-12
3.01914320421e-10
5.00641033252e-12
3.00024860574e-10
3.56921763665e-12
2.98849171455e-10
2.23442174614e-12
2.9834520605e-10
9.81545976538e-13
2.98479837314e-10
-2.07134928474e-13
2.99227764596e-10
-1.34709549909e-12
3.00570595044e-10
-2.45195149642e-12
3.02496064116e-10
-3.53376803638e-12
3.049973607e-10
-4.60329545095e-12
3.08072527953e-10
-5.67014095051e-12
3.11723911072e-10
-6.74288251722e-12
3.15957625956e-10
-7.82912719545e-12
3.20783020012e-10
-8.93551362328e-12
3.26212097083e-10
-1.00676554437e-11
3.32258873762e-10
-1.1230020767e-11
3.38938633821e-10
-1.24257404342e-11
3.46267041825e-10
-1.3656337572e-11
3.54259076831e-10
-1.4921370244e-11
3.62927742768e-10
-1.62179816233e-11
3.72282515909e-10
-1.75403556334e-11
3.82327491852e-10
-1.88790848554e-11
3.93059208909e-10
-2.02204693372e-11
4.04464141667e-10
-2.15457844729e-11
4.16515893401e-10
-2.28305800523e-11
4.29172157667e-10
-2.40441042095e-11
4.42371582689e-10
-2.5148978435e-11
4.56030740577e-10
-2.61012817313e-11
4.70041486477e-10
-2.68512198176e-11
4.84269063413e-10
-2.73445518827e-11
4.98551366966e-10
-2.75249053099e-11
5.1269979238e-10
-2.7337024034e-11
5.26502042838e-10
-2.67308621825e-11
5.39727147481e-10
-2.56662674199e-11
5.52132736006e-10
-2.41178145449e-11
5.6347433361e-10
-2.20791880004e-11
5.73516124063e-10
-1.95664066952e-11
5.82042307731e-10
-1.66191918211e-11
5.88867948303e-10
-1.32999436455e-11
5.93848120012e-10
-9.69015419077e-12
5.96884329578e-10
-5.88459618369e-12
5.97927581398e-10
-1.98416616718e-12
5.96978020978e-10
1.91139247515e-12
5.94081647801e-10
5.70965574524e-12
5.8932498188e-10
9.32973139126e-12
5.82828653044e-10
1.27043424853e-11
5.74740737899e-10
1.57801247523e-11
5.65230364173e-10
1.85168120577e-11
5.54481789217e-10
2.08860317569e-11
5.42688922127e-10
2.28702308216e-11
5.3005016378e-10
2.44619575184e-11
5.16763453333e-10
2.5663444835e-11
5.03021513552e-10
2.64862650549e-11
4.89007402412e-10
2.69507731281e-11
4.74890574587e-10
2.70851256562e-11
4.60823679707e-10
2.6923802044e-11
4.46940288795e-10
2.65057111679e-11
4.33353643974e-10
2.58720806398e-11
4.20156419698e-10
2.50643729176e-11
4.07421378356e-10
2.41224479022e-11
3.95202737928e-10
2.30831235148e-11
3.83538033898e-10
2.19791989805e-11
3.72450265037e-10
2.08389305615e-11
3.61950136053e-10
1.96858953143e-11
3.52038254252e-10
1.85391528953e-11
3.42707176597e-10
1.7413609503e-11
3.33943246782e-10
1.63204988945e-11
3.25728190664e-10
1.52679114058e-11
3.18040466081e-10
1.42613218239e-11
3.10856376087e-10
1.33040832052e-11
3.04150968003e-10
1.23978687786e-11
2.97898742386e-10
1.15430535071e-11
2.92074200836e-10
1.07390349559e-11
2.86652257523e-10
9.98449657169e-12
2.81608540382e-10
9.2776198253e-12
2.76919601938e-10
8.61625174661e-12
2.72563059755e-10
7.99803541426e-12
2.68517680433e-10
7.42050963619e-12
2.64763421313e-10
6.88118427551e-12
2.61281438558e-10
6.37759599939e-12
2.58054071088e-10
5.9073493452e-12
2.55064805005e-10
5.46814641067e-12
2.52298224524e-10
5.05780875282e-12
2.49739951117e-10
4.67429371831e-12
2.47376574328e-10
4.31570793069e-12
2.4519557379e-10
3.98031954123e-12
2.4318523391e-10
3.66657157636e-12
2.41334548966e-10
3.37309782809e-12
2.39633118362e-10
3.09874367533e-12
2.38071028113e-10
2.84259355839e-12
2.36638716736e-10
2.60400796981e-12
2.35326820193e-10
2.38267233415e-12
2.34125993056e-10
2.17866136645e-12
2.33026700583e-10
1.99252187436e-12
2.3201898109e-10
1.82537753548e-12
2.31092180031e-10
1.67905676392e-12
2.30234670971e-10
1.55624095497e-12
2.29433598403e-10
1.46061771111e-12
2.28674725426e-10
1.39699593393e-12
2.27942554183e-10
1.37127073291e-12
2.27221054791e-10
1.38996188566e-12
2.26495619217e-10
1.4586390941e-12
2.25757292922e-10
1.57745392058e-12
2.25009582174e-10
1.72924540334e-12
1.85107443879e-12
9.71723098096e-10
1.55665525775e-10
9.86479897335e-10
2.91632625457e-10
9.67694039227e-10
3.19154095452e-10
9.26982392385e-10
2.99238317421e-10
8.76206508934e-10
2.64026522778e-10
8.228993168e-10
2.26996963513e-10
7.71222464529e-10
1.9307842889e-10
7.23220022932e-10
1.63657703564e-10
6.79714921384e-10
1.38729574725e-10
6.40865268093e-10
1.17802441028e-10
6.06490014675e-10
1.00270027858e-10
5.76252753481e-10
8.55550170254e-11
5.49762091672e-10
7.31561030918e-11
5.26624256809e-10
6.26554960731e-11
5.06468912506e-10
5.37115678949e-11
4.88960270555e-10
4.60471515197e-11
4.73800360502e-10
3.94377459456e-11
4.60728301029e-10
3.37011458531e-11
4.49517694904e-10
2.8688854726e-11
4.39973295111e-10
2.42791825938e-11
4.31927542519e-10
2.03717793483e-11
4.25237272347e-10
1.68833333726e-11
4.19780720153e-10
1.37441926732e-11
4.15454869922e-10
1.08957071378e-11
4.12173140691e-10
8.28813142303e-12
4.09863386921e-10
5.87896352026e-12
4.08466178182e-10
3.63162288803e-12
4.0793332193e-10
1.51439499197e-12
4.08226593302e-10
-5.00413127292e-13
4.09316637582e-10
-2.43714610745e-12
4.11182013885e-10
-4.31733356502e-12
4.13808353109e-10
-6.16011235401e-12
4.17187600455e-10
-7.98254713721e-12
4.21317315824e-10
-9.79985977814e-12
4.2620000457e-10
-1.16255737412e-11
4.31842451102e-10
-1.34715750798e-11
4.38255025345e-10
-1.534808798e-11
4.45450930647e-10
-1.72635594635e-11
4.53445357947e-10
-1.92244452723e-11
4.6225450879e-10
-2.12348868077e-11
4.71894445703e-10
-2.32962682337e-11
4.82379727161e-10
-2.54066435229e-11
4.93721782567e-10
-2.75600268426e-11
5.05926986083e-10
-2.97455468462e-11
5.18994393978e-10
-3.19464783061e-11
5.32913125345e-10
-3.41391840693e-11
5.47659388331e-10
-3.62920286894e-11
5.63193191371e-10
-3.83643622232e-11
5.794548282e-10
-4.03057182208e-11
5.96361293412e-10
-4.20554190207e-11
6.13802864323e-10
-4.35428264711e-11
6.31640174826e-10
-4.46885028599e-11
6.4970218949e-10
-4.54065381898e-11
6.67785549272e-10
-4.56082362326e-11
6.85655773959e-10
-4.52072199017e-11
7.03050753881e-10
-4.41258138698e-11
7.19686819613e-10
-4.23023061913e-11
7.35267444865e-10
-3.9698414781e-11
7.49494317835e-10
-3.63060386718e-11
7.62080146734e-10
-3.21522167041e-11
7.72762189981e-10
-2.73012203133e-11
7.81315208243e-10
-2.18529518666e-11
7.8756242075e-10
-1.5937361924e-11
7.91383217697e-10
-9.70539399192e-12
7.92716853721e-10
-3.31780900264e-12
7.91562036198e-10
3.06619713081e-12
7.87973014293e-10
9.29865870668e-12
7.82053247315e-10
1.52494735764e-11
7.739478285e-10
2.08097310013e-11
7.63835635664e-10
2.58922823786e-11
7.51921798585e-10
3.04306096895e-11
7.38430690607e-10
3.43770968999e-11
7.2359938584e-10
3.77014901884e-11
7.07671422721e-10
4.03898735711e-11
6.90890752119e-10
4.24440674759e-11
6.73495877375e-10
4.38810917294e-11
6.55714339409e-10
4.47322635278e-11
6.37757808976e-10
4.5041609623e-11
6.1981807399e-10
4.48634920756e-11
6.02064155208e-10
4.42595869019e-11
5.84640664996e-10
4.32955299281e-11
5.67667388541e-10
4.20376107884e-11
5.51239944603e-10
4.05498556538e-11
5.35431304486e-10
3.88917299203e-11
5.20293912541e-10
3.71165596329e-11
5.05862159753e-10
3.52706544577e-11
4.9215499377e-10
3.33930346783e-11
4.79178497318e-10
3.15156249264e-11
4.66928314618e-10
2.96637698147e-11
4.55391851712e-10
2.78569413422e-11
4.44550211541e-10
2.61095328706e-11
4.34379853558e-10
2.44316627431e-11
4.24853985108e-10
2.28299360591e-11
4.15943705158e-10
2.13081344968e-11
4.07618925972e-10
1.98678196651e-11
3.9984910226e-10
1.8508846751e-11
3.92603795857e-10
1.72297920259e-11
3.85853103566e-10
1.60283020612e-11
3.79567971842e-10
1.49013741834e-11
3.73720420243e-10
1.38455784369e-11
3.6828369116e-10
1.28572307463e-11
3.63232341656e-10
1.19325263682e-11
3.58542289246e-10
1.10676414707e-11
3.54190822272e-10
1.02588098243e-11
3.50156582188e-10
9.50238037029e-12
3.46419524422e-10
8.7948607475e-12
3.42960861746e-10
8.13295091572e-12
3.39762993863e-10
7.51357062268e-12
3.36809424622e-10
6.93388382968e-12
3.34084668378e-10
6.39132310955e-12
3.31574145019e-10
5.88361667904e-12
3.29264063541e-10
5.40882085957e-12
3.2714129239e-10
4.96536060157e-12
3.25193215524e-10
4.55208093368e-12
3.2340757216e-10
4.16831198345e-12
3.21772279949e-10
3.81395008352e-12
3.20275242192e-10
3.48955635434e-12
3.18904144671e-10
3.19647204651e-12
3.17646253919e-10
2.93694479135e-12
3.16488242722e-10
2.71424979107e-12
3.15416089599e-10
2.53276887701e-12
3.1441513609e-10
2.39794798369e-12
3.13470440012e-10
2.31596588063e-12
3.12567637822e-10
2.29276370472e-12
3.11694586075e-10
2.33169097148e-12
3.10843841264e-10
2.42819926122e-12
3.10014474105e-10
2.55861325707e-12
2.66055886419e-12
9.63874351454e-10
1.29291170084e-10
9.8742423055e-10
2.6808273703e-10
9.89179076406e-10
3.17399240303e-10
9.71229889466e-10
3.17187495083e-10
9.40528512883e-10
2.94727889829e-10
9.03127327494e-10
2.64398139209e-10
8.63227070417e-10
2.32978676182e-10
8.23480325663e-10
2.03404438475e-10
7.85447768549e-10
1.76762121946e-10
7.49971624068e-10
1.53278575579e-10
7.17440243864e-10
1.32801398097e-10
6.87964959514e-10
1.15030291385e-10
6.61494699163e-10
9.96263534268e-11
6.37888731044e-10
8.62614541651e-11
6.16961994874e-10
7.46382940271e-11
5.98512785251e-10
6.44963511131e-11
5.82339209471e-10
5.56113117044e-11
5.6824858054e-10
4.77917647934e-11
5.56062414133e-10
4.08750111738e-11
5.45618729493e-10
3.47228573318e-11
5.36772730154e-10
2.92177688471e-11
5.29396541542e-10
2.42595122382e-11
5.23378427675e-10
1.97622968979e-11
5.18621747767e-10
1.56523775483e-11
5.15043810498e-10
1.18660593567e-11
5.12574719121e-10
8.3480457771e-12
5.11156259033e-10
5.05007410145e-12
5.10740853933e-10
1.92979152874e-12
5.11290599869e-10
-1.05016727225e-12
5.12776374347e-10
-3.92292835479e-12
5.15177014585e-10
-6.71798107294e-12
5.18478553911e-10
-9.46165834869e-12
5.22673497827e-10
-1.21774970416e-11
5.27760121433e-10
-1.48864885659e-11
5.33741766488e-10
-1.76072230773e-11
5.40626114132e-10
-2.03559259569e-11
5.48424405607e-10
-2.31463815282e-11
5.57150580707e-10
-2.59897353134e-11
5.66820299482e-10
-2.88941633521e-11
5.77449809916e-10
-3.18643949304e-11
5.89054620379e-10
-3.490107465e-11
6.01647934151e-10
-3.79999513505e-11
6.15238802073e-10
-4.11508868263e-11
6.29829952802e-10
-4.43366875099e-11
6.45415266702e-10
-4.75317799704e-11
6.6197687477e-10
-5.07007776563e-11
6.79481887265e-10
-5.37970244883e-11
6.9787879479e-10
-5.67612508474e-11
7.17093636282e-10
-5.95205387368e-11
7.37026099551e-10
-6.198785935e-11
7.57545805534e-10
-6.40625077969e-11
7.78489126138e-10
-6.5631797317e-11
7.99656980586e-10
-6.65743653812e-11
8.20814131228e-10
-6.67653588778e-11
8.41690525126e-10
-6.60835856051e-11
8.61985179185e-10
-6.44204400701e-11
8.81372956665e-10
-6.16900568635e-11
8.99514328892e-10
-5.7839761935e-11
9.16067861684e-10
-5.28595489525e-11
9.30704745128e-10
-4.67890809235e-11
9.43124242374e-10
-3.97207024143e-11
9.53068560608e-10
-3.17972596413e-11
9.60335469458e-10
-2.3204265604e-11
9.64787155799e-10
-1.41570808291e-11
9.66354363905e-10
-4.88502361592e-12
9.65035722361e-10
4.38482606011e-12
9.60893026897e-10
1.3441335413e-11
9.54043823246e-10
2.2098652578e-11
9.44652724583e-10
3.02007994679e-11
9.32922594254e-10
3.76223775985e-11
9.1908622013e-10
4.42669444844e-11
9.03398634855e-10
5.00646395144e-11
8.86129935699e-10
5.49701441883e-11
8.67558366819e-10
5.89613957188e-11
8.47963502046e-10
6.20388847181e-11
8.27619542583e-10
6.42250036503e-11
8.06788933254e-10
6.55628259162e-11
7.85716634388e-10
6.61138627401e-11
7.64625413513e-10
6.59546688049e-11
7.43712444159e-10
6.51725140965e-11
7.23147347975e-10
6.38605861534e-11
7.03071648167e-10
6.21132730356e-11
6.83599458569e-10
6.00220101443e-11
6.64819144435e-10
5.76720114543e-11
6.46795657828e-10
5.51400160868e-11
6.29573265599e-10
5.24930189387e-11
6.13178429772e-10
4.97878450315e-11
5.97622656443e-10
4.70713749579e-11
5.82905183887e-10
4.43812210835e-11
5.690154303e-10
4.17466755315e-11
5.55935159614e-10
3.91897858713e-11
5.43640353498e-10
3.67264527631e-11
5.32102796448e-10
3.43674784323e-11
5.21291394116e-10
3.21195234574e-11
5.11173250948e-10
2.99859506112e-11
5.01714536884e-10
2.7967549645e-11
4.92881172192e-10
2.6063146464e-11
4.84639358809e-10
2.42701060276e-11
4.76955983282e-10
2.25847410128e-11
4.69798914275e-10
2.10026394059e-11
4.63137213753e-10
1.95189237903e-11
4.5694127881e-10
1.81284543488e-11
4.5118292756e-10
1.6825986193e-11
4.45835440801e-10
1.56062904608e-11
4.40873568225e-10
1.44642471612e-11
4.36273506763e-10
1.33949167451e-11
4.32012856271e-10
1.23935962085e-11
4.28070557077e-10
1.1455864879e-11
4.24426811962e-10
1.05776242202e-11
4.21062994898e-10
9.75513566948e-12
4.17961547248e-10
8.98506000802e-12
4.15105862308e-10
8.26450167572e-12
4.12480157894e-10
7.59106106063e-12
4.10069337381e-10
6.96289768446e-12
4.07858839243e-10
6.37880653344e-12
4.05834477005e-10
5.83830894276e-12
4.03982272928e-10
5.34175725735e-12
4.02288293293e-10
4.89044876672e-12
4.00738498557e-10
4.48673688988e-12
3.99318632007e-10
4.13411406217e-12
3.98014183827e-10
3.83721518346e-12
3.96810487204e-10
3.60164324657e-12
3.9569302283e-10
3.43342946177e-12
3.94648014375e-10
3.33777200228e-12
3.93663318956e-10
3.3163868073e-12
3.92729218057e-10
3.36230086556e-12
3.91837266019e-10
3.450566037e-12
3.5252107341e-12
9.57454559272e-10
1.09336606338e-10
9.82202529466e-10
2.43334757063e-10
9.94305868192e-10
3.0529589207e-10
9.91036423227e-10
3.20456930195e-10
9.75553808536e-10
3.10210494279e-10
9.51971275633e-10
2.87980661681e-10
9.23750113123e-10
2.61199828169e-10
8.93431213666e-10
2.33723327355e-10
8.62758269287e-10
2.07435055706e-10
8.3287081106e-10
1.83166023151e-10
8.0447630221e-10
1.61195896253e-10
7.77983232924e-10
1.41523349947e-10
7.53598265373e-10
1.24011310225e-10
7.31395082258e-10
1.08464626505e-10
7.11362312266e-10
9.46710532259e-11
6.93436451712e-10
8.24222008677e-11
6.77524212552e-10
7.15235400626e-11
6.63517501989e-10
6.17984645658e-11
6.51303309128e-10
5.30891932601e-11
6.40770095785e-10
4.52560599358e-11
6.31811803659e-10
3.81760502751e-11
6.24330248479e-10
3.17410567859e-11
6.18236432365e-10
2.58561024571e-11
6.13451139464e-10
2.04376600048e-11
6.09905064122e-10
1.54121243851e-11
6.07538641007e-10
1.07144587524e-11
6.06301690731e-10
6.2870144425e-12
6.06152956125e-10
2.0785164615e-12
6.07059577157e-10
-1.95679766807e-12
6.08996530136e-10
-5.85989031611e-12
6.11946051812e-10
-9.66751128536e-12
6.1589705235e-10
-1.34126668816e-11
6.2084451248e-10
-1.71249645433e-11
6.26788856942e-10
-2.0830839658e-11
6.33735290461e-10
-2.45536623779e-11
6.41693078112e-10
-2.83137184012e-11
6.50674747139e-10
-3.21280542319e-11
6.60695183328e-10
-3.60101739003e-11
6.71770590451e-10
-3.99695714497e-11
6.8391727762e-10
-4.40110814734e-11
6.97150235387e-10
-4.81340300439e-11
7.11481459199e-10
-5.23311708625e-11
7.26917977355e-10
-5.65873986263e-11
7.43459543066e-10
-6.08782446568e-11
7.61095956006e-10
-6.51681820499e-11
7.79803992481e-10
-6.94088008823e-11
7.99543945482e-10
-7.35369618395e-11
8.20255812299e-10
-7.7473099607e-11
8.41855219299e-10
-8.11199253619e-11
8.64229246357e-10
-8.43618638189e-11
8.87232405361e-10
-8.70656422068e-11
9.10683136778e-10
-8.90825023647e-11
9.34361300862e-10
-9.02525016693e-11
9.58007236744e-10
-9.04112659241e-11
9.81323009326e-10
-8.9399328835e-11
1.00397642855e-09
-8.70738300169e-11
1.02560827676e-09
-8.33218765915e-11
1.04584290807e-09
-7.80743663552e-11
1.06430199438e-09
-7.13186108675e-11
1.08062071276e-09
-6.31077782682e-11
1.09446514096e-09
-5.35651138012e-11
1.10554914407e-09
-4.28812509367e-11
1.11364875668e-09
-3.13038720289e-11
1.11861220158e-09
-1.91205256453e-11
1.12036435644e-09
-6.63718481778e-12
1.11890556082e-09
5.84360878466e-12
1.11430577369e-09
1.80411031156e-11
1.10669580563e-09
2.97085949482e-11
1.09625741254e-09
4.06391610596e-11
1.0832135738e-09
5.06661797088e-11
1.06781958923e-09
5.96608881179e-11
1.05035503362e-09
6.7529150845e-11
1.031116269e-09
7.42088621239e-11
1.01040914693e-09
7.96684696421e-11
9.88541667051e-10
8.3906315842e-11
9.65816603939e-10
8.69500181801e-11
9.42524367388e-10
8.88550147061e-11
9.18936531156e-10
8.97016526099e-11
8.95300494792e-10
8.95906606324e-11
8.71835635727e-10
8.86373308167e-11
8.48731112734e-10
8.6965069209e-11
8.26145270714e-10
8.46990776997e-11
8.04206426651e-10
8.19608194778e-11
7.83014719596e-10
7.88636864322e-11
7.6264468046e-10
7.55100257213e-11
7.43148204932e-10
7.19894674703e-11
7.24557668675e-10
6.83783566477e-11
7.06888990989e-10
6.4740030235e-11
6.90144515283e-10
6.11256764305e-11
6.74315628048e-10
5.75755443131e-11
6.59385077761e-10
5.41203194234e-11
6.45328984612e-10
5.07825307526e-11
6.32118550454e-10
4.75778988314e-11
6.19721490605e-10
4.45165708195e-11
6.08103214745e-10
4.16042151006e-11
5.97227787112e-10
3.8842966915e-11
5.87058695582e-10
3.62322285065e-11
5.77559458147e-10
3.3769334762e-11
5.68694092331e-10
3.14500988043e-11
5.60427470725e-10
2.92692535979e-11
5.52725582356e-10
2.72208052635e-11
5.45555717258e-10
2.52983130209e-11
5.38886588397e-10
2.34951090234e-11
5.32688403214e-10
2.1804469976e-11
5.26932894358e-10
2.02197506535e-11
5.21593317814e-10
1.87344882076e-11
5.16644424491e-10
1.73424846878e-11
5.12062410405e-10
1.60378743473e-11
5.07824848964e-10
1.48151812349e-11
5.03910608312e-10
1.36693720859e-11
5.00299755473e-10
1.25959087751e-11
4.96973448922e-10
1.15908043261e-11
4.93913820416e-10
1.06506858207e-11
4.91103847358e-10
9.77286716563e-12
4.88527216888e-10
8.95543358889e-12
4.86168184226e-10
8.1973383798e-12
4.84011428997e-10
7.49850945664e-12
4.82041916313e-10
6.85995865924e-12
4.80244772795e-10
6.28387788593e-12
4.78605193388e-10
5.77369128487e-12
4.77108400715e-10
5.33400607249e-12
4.75739684304e-10
4.97035836969e-12
4.74484543575e-10
4.68856946644e-12
4.73328924565e-10
4.49339090704e-12
4.72259407921e-10
4.38590392881e-12
4.71262800674e-10
4.35890888547e-12
4.70323660514e-10
4.38970696845e-12
4.43149965008e-12
9.52812728635e-10
9.40238724303e-11
9.76066988206e-10
2.20080486931e-10
9.9293952511e-10
2.88423344732e-10
9.98739369828e-10
3.14657075097e-10
9.9411133997e-10
3.14838513513e-10
9.81476578929e-10
3.00615411949e-10
9.6338534801e-10
2.79291048242e-10
9.41975431688e-10
2.55133232788e-10
9.18880797288e-10
2.30529679182e-10
8.95288888064e-10
2.06757921418e-10
8.720316803e-10
1.84453093028e-10
8.4967193561e-10
1.63883083615e-10
8.28574289869e-10
1.45108944914e-10
8.08960538358e-10
1.28078366939e-10
7.90951382554e-10
1.12680197933e-10
7.74597410614e-10
9.87761616957e-11
7.59901814875e-10
8.62191246829e-11
7.46836890596e-10
7.48633777262e-11
7.35355910879e-10
6.45701618693e-11
7.25401592356e-10
5.52103673716e-11
7.16912063276e-10
4.66655683002e-11
7.0982501177e-10
3.88280972847e-11
7.0408051471e-10
3.16005885773e-11
6.99622914686e-10
2.48952491767e-11
6.96402013613e-10
1.86330147221e-11
6.94373778136e-10
1.27426836406e-11
6.93500697694e-10
7.16008448366e-12
6.93751895878e-10
1.82730810795e-12
6.95103066062e-10
-3.3079777357e-12
6.97536275541e-10
-8.29310932901e-12
7.01039679329e-10
-1.31709241858e-11
7.05607156982e-10
-1.7980153143e-11
7.11237880598e-10
-2.27556961676e-11
7.17935815292e-10
-2.75287816529e-11
7.2570914612e-10
-3.2326999681e-11
7.34569619424e-10
-3.71741972199e-11
7.44531780946e-10
-4.20902201638e-11
7.55612088053e-10
-4.70904841546e-11
7.67827868331e-10
-5.21853534446e-11
7.81196092274e-10
-5.73793055272e-11
7.95731923376e-10
-6.26698594719e-11
8.11447005574e-10
-6.80462494228e-11
8.28347445717e-10
-7.34878329981e-11
8.46431449191e-10
-7.89622400724e-11
8.65686570862e-10
-8.44232932446e-11
8.86086553997e-10
-8.98087710294e-11
9.07587749223e-10
-9.503814151e-11