/*--------------------------------*- C++ -*----------------------------------*\
  =========                 |
  \\      /  F ield         | OpenFOAM: The Open Source CFD Toolbox
   \\    /   O peration     | Website:  https://openfoam.org
    \\  /    A nd           | Version:  7
     \\/     M anipulation  |
\*---------------------------------------------------------------------------*/
FoamFile
{
    version     2.0;
    format      ascii;
    class       volScalarField;
    location    "2520";
    object      Ci;
}
// * * * * * * * * * * * * * * * * * * * * * * * * * * * * * * * * * * * * * //

dimensions      [0 -3 0 0 1 0 0];

internalField   nonuniform List<scalar> 
8192
(
9.99999998616
10.0000000479
10.0000001344
10.0000002509
10.0000004091
10.0000006031
10.0000008173
10.0000010461
10.0000012856
10.0000015331
10.0000017864
10.0000020436
10.0000023028
10.0000025624
10.0000028205
10.0000030754
10.0000033254
10.0000035684
10.0000038023
10.0000040236
10.0000042294
10.0000044179
10.0000045881
10.0000047384
10.0000048679
10.0000049751
10.0000050589
10.0000051179
10.0000051511
10.0000051569
10.0000051347
10.0000050829
10.0000050011
10.0000048879
10.0000047433
10.000004566
10.000004356
10.0000041134
10.0000038404
10.0000035379
10.0000032087
10.0000028538
10.0000024765
10.0000020781
10.0000016625
10.0000012312
10.0000007891
10.0000003382
9.99999988449
9.99999943043
9.99999898301
9.99999854533
9.99999812554
9.99999772739
9.99999736035
9.99999702895
9.999996744
9.99999651074
9.99999634119
9.99999624107
9.99999622301
9.99999629211
9.99999645958
9.99999672695
9.99999710016
9.99999757356
9.99999814528
9.99999880231
9.99999953707
10.0000003332
10.0000011816
10.0000020659
10.0000029776
10.0000039014
10.0000048294
10.0000057479
10.00000665
10.0000075242
10.0000083656
10.0000091655
10.0000099216
10.000010628
10.0000112847
10.0000118882
10.0000124403
10.0000129394
10.0000133884
10.0000137869
10.0000141386
10.0000144439
10.0000147066
10.0000149277
10.0000151114
10.0000152597
10.0000153768
10.0000154643
10.0000155261
10.0000155633
10.0000155792
10.0000155747
10.0000155527
10.000015514
10.0000154611
10.0000153948
10.0000153175
10.0000152297
10.0000151338
10.0000150303
10.0000149212
10.000014807
10.0000146895
10.0000145689
10.0000144469
10.0000143235
10.0000142001
10.0000140763
10.0000139532
10.0000138299
10.0000137069
10.0000135825
10.0000134563
10.0000133257
10.0000131898
10.0000130466
10.000012898
10.0000127493
10.0000126155
10.0000125245
10.000000011
10.0000000793
10.0000001594
10.0000002595
10.0000003872
10.0000005427
10.000000723
10.0000009243
10.0000011426
10.0000013742
10.000001616
10.0000018649
10.0000021186
10.0000023749
10.0000026318
10.0000028873
10.0000031397
10.0000033868
10.000003627
10.0000038539
10.0000040651
10.0000042598
10.0000044375
10.000004597
10.0000047371
10.0000048566
10.0000049544
10.000005029
10.0000050796
10.0000051047
10.0000051037
10.000005075
10.0000050184
10.0000049325
10.0000048173
10.0000046718
10.0000044943
10.0000042865
10.0000040513
10.0000037898
10.0000035044
10.0000031959
10.0000028671
10.0000025185
10.0000021531
10.0000017718
10.0000013783
10.0000009741
10.0000005637
10.0000001491
9.99999973625
9.9999993277
9.99999893053
9.99999854832
9.9999981894
9.99999785831
9.99999756467
9.99999731391
9.99999711672
9.99999697909
9.99999691219
9.99999692153
9.99999701691
9.99999720092
9.99999747888
9.99999784764
9.99999830617
9.9999988454
9.99999945958
10.0000001366
10.000000869
10.0000016443
10.0000024548
10.000003288
10.0000041363
10.0000049878
10.0000058354
10.0000066683
10.0000074806
10.0000082636
10.0000090133
10.0000097232
10.0000103915
10.0000110139
10.0000115902
10.0000121181
10.0000125989
10.0000130317
10.0000134187
10.0000137599
10.0000140581
10.000014314
10.0000145314
10.0000147126
10.0000148615
10.00001498
10.0000150714
10.0000151371
10.00001518
10.0000152013
10.0000152035
10.0000151878
10.0000151565
10.0000151106
10.0000150522
10.0000149823
10.000014903
10.0000148149
10.0000147201
10.0000146192
10.000014514
10.0000144048
10.0000142932
10.0000141794
10.0000140648
10.0000139492
10.0000138336
10.0000137173
10.0000136009
10.0000134828
10.0000133627
10.0000132383
10.0000131083
10.0000129708
10.0000128263
10.0000126805
10.0000125456
10.0000124409
10.0000000136
10.0000000866
10.0000001644
10.0000002525
10.0000003579
10.000000482
10.0000006256
10.000000788
10.0000009678
10.0000011629
10.000001371
10.0000015896
10.0000018162
10.0000020483
10.0000022837
10.00000252
10.0000027555
10.0000029879
10.0000032155
10.000003436
10.0000036476
10.0000038484
10.0000040374
10.0000042128
10.0000043738
10.0000045185
10.0000046463
10.0000047555
10.0000048455
10.0000049148
10.0000049631
10.0000049888
10.0000049919
10.000004971
10.0000049264
10.0000048568
10.0000047626
10.000004643
10.0000044996
10.0000043316
10.0000041408
10.0000039265
10.000003691
10.0000034339
10.0000031584
10.0000028642
10.0000025554
10.0000022323
10.0000019
10.000001559
10.0000012153
10.0000008696
10.0000005287
10.0000001937
9.99999987226
9.99999956585
9.9999992832
9.99999902631
9.99999880502
9.99999862193
9.99999848775
9.99999840526
9.99999838492
9.99999842815
9.99999854293
9.9999987272
9.99999898469
9.99999930931
9.9999997012
10.0000001519
10.0000006598
10.0000012155
10.0000018165
10.0000024526
10.0000031202
10.0000038088
10.0000045135
10.0000052241
10.0000059356
10.0000066384
10.0000073285
10.0000079975
10.0000086426
10.0000092574
10.0000098404
10.0000103871
10.0000108975
10.0000113686
10.0000118016
10.000012195
10.0000125508
10.0000128682
10.0000131503
10.0000133974
10.0000136126
10.0000137964
10.0000139518
10.0000140793
10.0000141818
10.0000142601
10.0000143167
10.0000143524
10.00001437
10.00001437
10.0000143551
10.0000143259
10.0000142849
10.0000142326
10.0000141713
10.0000141014
10.0000140251
10.0000139427
10.000013856
10.000013765
10.0000136715
10.0000135752
10.0000134775
10.0000133778
10.000013277
10.0000131738
10.0000130683
10.0000129585
10.0000128436
10.0000127213
10.0000125911
10.0000124576
10.0000123285
10.0000122133
10.0000000122
10.0000000909
10.0000001691
10.0000002541
10.0000003506
10.0000004594
10.000000581
10.0000007162
10.0000008654
10.000001028
10.0000012031
10.0000013895
10.0000015856
10.0000017896
10.0000019998
10.0000022141
10.0000024308
10.0000026479
10.0000028637
10.0000030764
10.0000032845
10.0000034864
10.0000036808
10.0000038663
10.0000040417
10.0000042056
10.0000043571
10.0000044948
10.000004618
10.0000047254
10.0000048164
10.0000048898
10.0000049451
10.0000049814
10.0000049983
10.0000049948
10.000004971
10.000004926
10.0000048603
10.0000047733
10.0000046656
10.000004537
10.0000043886
10.0000042206
10.0000040346
10.0000038313
10.0000036129
10.0000033804
10.0000031367
10.000002883
10.0000026225
10.0000023566
10.0000020889
10.0000018212
10.0000015575
10.0000013001
10.0000010539
10.0000008216
10.0000006091
10.0000004199
10.0000002605
10.0000001351
10.0000000501
10.0000000091
10.0000000168
10.0000000743
10.0000001834
10.000000342
10.0000005498
10.0000008033
10.0000011017
10.0000014412
10.0000018208
10.0000022361
10.0000026852
10.000003163
10.0000036663
10.0000041893
10.000004728
10.0000052763
10.0000058298
10.0000063825
10.0000069303
10.0000074677
10.0000079913
10.0000084965
10.0000089808
10.0000094409
10.0000098754
10.0000102821
10.0000106607
10.0000110098
10.0000113301
10.0000116212
10.0000118842
10.0000121194
10.0000123282
10.000012511
10.0000126696
10.0000128044
10.0000129174
10.0000130094
10.0000130821
10.0000131364
10.0000131743
10.0000131966
10.0000132051
10.0000132007
10.0000131852
10.0000131593
10.0000131247
10.0000130819
10.0000130325
10.000012977
10.0000129165
10.0000128515
10.0000127828
10.0000127106
10.0000126355
10.0000125569
10.000012475
10.0000123884
10.0000122964
10.0000121976
10.0000120914
10.0000119819
10.0000118727
10.000011773
10.0000000133
10.000000099
10.0000001828
10.0000002687
10.0000003622
10.0000004637
10.0000005738
10.0000006928
10.0000008218
10.0000009611
10.0000011105
10.0000012696
10.0000014377
10.0000016138
10.0000017967
10.0000019852
10.0000021778
10.0000023732
10.0000025699
10.0000027664
10.0000029614
10.0000031535
10.0000033415
10.000003524
10.0000037
10.0000038682
10.0000040276
10.0000041771
10.0000043159
10.0000044429
10.0000045573
10.0000046582
10.0000047449
10.0000048166
10.0000048727
10.0000049125
10.0000049356
10.0000049414
10.0000049297
10.0000049001
10.0000048527
10.0000047873
10.0000047044
10.0000046041
10.0000044875
10.0000043547
10.0000042076
10.0000040464
10.0000038734
10.0000036892
10.0000034962
10.0000032952
10.0000030892
10.0000028793
10.0000026688
10.0000024596
10.0000022556
10.0000020595
10.0000018759
10.000001708
10.0000015614
10.0000014394
10.0000013475
10.0000012883
10.0000012656
10.0000012796
10.000001331
10.0000014176
10.0000015382
10.0000016896
10.0000018711
10.0000020802
10.0000023166
10.0000025781
10.0000028642
10.0000031727
10.0000035025
10.0000038511
10.0000042168
10.0000045967
10.0000049886
10.000005389
10.0000057955
10.0000062043
10.0000066128
10.0000070173
10.0000074153
10.0000078036
10.0000081801
10.0000085422
10.0000088884
10.0000092169
10.0000095267
10.0000098168
10.0000100868
10.0000103361
10.000010565
10.0000107732
10.0000109614
10.0000111298
10.0000112792
10.0000114099
10.0000115232
10.0000116196
10.0000117003
10.0000117661
10.0000118181
10.0000118572
10.0000118846
10.000011901
10.0000119077
10.0000119054
10.0000118951
10.0000118774
10.0000118534
10.0000118235
10.0000117885
10.0000117487
10.0000117046
10.0000116561
10.0000116033
10.0000115455
10.000011482
10.0000114121
10.0000113344
10.0000112548
10.0000111719
10.0000111046
10.0000000134
10.0000001047
10.0000001922
10.0000002818
10.0000003771
10.0000004775
10.0000005832
10.0000006945
10.0000008122
10.0000009369
10.0000010692
10.000001209
10.000001356
10.0000015097
10.0000016694
10.0000018344
10.0000020038
10.0000021765
10.0000023515
10.0000025277
10.0000027041
10.0000028795
10.000003053
10.0000032233
10.0000033895
10.0000035507
10.0000037058
10.000003854
10.0000039942
10.0000041259
10.0000042478
10.0000043596
10.0000044601
10.0000045491
10.0000046251
10.0000046885
10.0000047375
10.0000047727
10.0000047925
10.0000047974
10.0000047863
10.0000047595
10.0000047167
10.000004658
10.0000045838
10.0000044942
10.0000043902
10.0000042723
10.0000041417
10.0000039992
10.0000038465
10.0000036847
10.0000035158
10.0000033414
10.0000031643
10.0000029867
10.000002812
10.0000026435
10.0000024853
10.0000023413
10.000002216
10.0000021137
10.0000020387
10.0000019942
10.0000019824
10.0000020037
10.0000020567
10.0000021384
10.0000022457
10.0000023749
10.0000025235
10.000002689
10.0000028699
10.0000030646
10.0000032721
10.000003491
10.0000037208
10.0000039601
10.0000042089
10.0000044658
10.0000047308
10.0000050026
10.0000052806
10.0000055632
10.0000058496
10.0000061378
10.0000064266
10.0000067139
10.0000069985
10.0000072784
10.0000075522
10.0000078182
10.0000080753
10.0000083221
10.0000085578
10.0000087812
10.000008992
10.0000091893
10.0000093731
10.0000095429
10.0000096989
10.000009841
10.0000099696
10.0000100848
10.0000101873
10.0000102773
10.0000103556
10.0000104226
10.0000104791
10.0000105256
10.0000105629
10.0000105915
10.0000106122
10.0000106254
10.0000106319
10.0000106322
10.0000106267
10.0000106159
10.0000106001
10.0000105795
10.0000105539
10.0000105235
10.0000104869
10.000010445
10.0000103942
10.0000103437
10.0000102836
10.0000102501
10.0000000144
10.0000001103
10.0000002029
10.0000002959
10.0000003931
10.0000004938
10.0000005977
10.0000007051
10.0000008167
10.0000009327
10.000001054
10.0000011809
10.0000013133
10.0000014509
10.0000015934
10.0000017402
10.0000018908
10.0000020444
10.0000022003
10.0000023577
10.0000025159
10.0000026739
10.000002831
10.0000029863
10.000003139
10.0000032883
10.0000034332
10.0000035734
10.0000037073
10.0000038353
10.0000039551
10.0000040681
10.0000041706
10.0000042658
10.0000043483
10.0000044228
10.0000044825
10.0000045334
10.0000045679
10.0000045924
10.0000045999
10.0000045956
10.0000045746
10.0000045402
10.0000044899
10.0000044256
10.0000043466
10.000004254
10.0000041483
10.0000040304
10.0000039015
10.0000037628
10.0000036159
10.0000034627
10.0000033053
10.0000031465
10.0000029893
10.0000028375
10.000002695
10.0000025662
10.0000024558
10.0000023685
10.0000023086
10.0000022796
10.0000022837
10.0000023208
10.0000023889
10.0000024845
10.0000026031
10.0000027403
10.0000028927
10.0000030571
10.0000032312
10.0000034125
10.0000035994
10.0000037899
10.0000039829
10.0000041771
10.0000043721
10.0000045673
10.0000047628
10.0000049586
10.0000051547
10.0000053513
10.0000055483
10.0000057457
10.0000059432
10.0000061405
10.0000063371
10.0000065325
10.000006726
10.0000069169
10.0000071044
10.0000072878
10.0000074661
10.0000076388
10.000007805
10.0000079641
10.0000081156
10.0000082591
10.0000083941
10.0000085203
10.0000086378
10.0000087463
10.0000088459
10.0000089367
10.0000090189
10.0000090927
10.0000091584
10.0000092163
10.0000092667
10.00000931
10.0000093466
10.0000093767
10.0000094009
10.0000094194
10.0000094326
10.0000094408
10.000009444
10.0000094428
10.0000094366
10.0000094261
10.000009409
10.0000093885
10.0000093571
10.0000093309
10.0000092851
10.0000092826
10.0000000142
10.0000001128
10.0000002076
10.0000003041
10.0000004049
10.000000508
10.0000006127
10.0000007191
10.0000008279
10.0000009395
10.0000010544
10.0000011731
10.000001296
10.0000014228
10.0000015534
10.0000016874
10.0000018244
10.0000019639
10.0000021054
10.0000022482
10.0000023918
10.0000025356
10.0000026788
10.0000028211
10.0000029612
10.0000030994
10.0000032336
10.0000033654
10.0000034908
10.0000036138
10.0000037274
10.0000038394
10.000003938
10.0000040368
10.0000041174
10.0000042004
10.0000042601
10.0000043242
10.000004361
10.000004402
10.0000044148
10.0000044286
10.0000044166
10.0000044003
10.0000043627
10.0000043155
10.0000042517
10.0000041755
10.0000040856
10.0000039834
10.0000038698
10.0000037456
10.0000036123
10.0000034715
10.0000033253
10.0000031761
10.0000030272
10.0000028824
10.0000027459
10.0000026227
10.0000025178
10.0000024367
10.0000023843
10.000002365
10.0000023808
10.0000024319
10.0000025155
10.000002627
10.0000027609
10.0000029122
10.0000030768
10.0000032512
10.0000034326
10.0000036184
10.0000038062
10.0000039937
10.000004179
10.0000043605
10.0000045374
10.0000047087
10.0000048745
10.0000050345
10.0000051892
10.0000053387
10.0000054838
10.0000056248
10.0000057624
10.000005897
10.0000060291
10.000006159
10.000006287
10.0000064131
10.0000065374
10.0000066596
10.0000067797
10.0000068971
10.0000070117
10.0000071229
10.0000072306
10.0000073341
10.0000074332
10.0000075277
10.0000076172
10.0000077015
10.0000077806
10.0000078542
10.0000079224
10.0000079852
10.0000080426
10.0000080947
10.0000081417
10.0000081835
10.0000082205
10.0000082527
10.0000082803
10.0000083036
10.0000083226
10.0000083375
10.0000083484
10.0000083557
10.0000083583
10.0000083579
10.0000083506
10.0000083426
10.0000083208
10.0000083112
10.0000082702
10.0000082914
10.000000015
10.0000001166
10.000000215
10.0000003139
10.0000004166
10.0000005213
10.0000006269
10.0000007333
10.0000008408
10.00000095
10.0000010612
10.0000011749
10.0000012916
10.0000014112
10.0000015337
10.0000016589
10.0000017863
10.0000019157
10.0000020466
10.0000021788
10.0000023115
10.0000024447
10.000002577
10.0000027094
10.0000028392
10.000002969
10.0000030937
10.0000032194
10.0000033359
10.0000034566
10.0000035611
10.0000036761
10.0000037646
10.0000038735
10.0000039413
10.0000040433
10.0000040868
10.0000041787
10.0000041967
10.0000042723
10.0000042671
10.000004317
10.0000042931
10.0000043087
10.000004269
10.0000042467
10.0000041902
10.0000041328
10.0000040559
10.0000039696
10.0000038703
10.0000037602
10.00000364
10.000003511
10.0000033747
10.0000032337
10.0000030908
10.0000029499
10.0000028153
10.0000026927
10.0000025874
10.0000025058
10.0000024535
10.0000024356
10.0000024545
10.0000025102
10.0000025996
10.0000027172
10.000002857
10.0000030135
10.0000031823
10.00000336
10.0000035438
10.0000037311
10.0000039194
10.0000041062
10.0000042896
10.0000044677
10.0000046392
10.0000048031
10.0000049586
10.0000051055
10.0000052436
10.000005373
10.0000054941
10.0000056075
10.0000057136
10.0000058134
10.0000059075
10.0000059968
10.000006082
10.0000061638
10.0000062426
10.0000063189
10.0000063929
10.0000064649
10.0000065348
10.0000066028
10.0000066686
10.0000067324
10.0000067937
10.0000068527
10.000006909
10.0000069626
10.0000070133
10.000007061
10.0000071057
10.0000071474
10.0000071858
10.0000072211
10.0000072532
10.0000072823
10.0000073081
10.000007331
10.0000073507
10.0000073677
10.0000073815
10.0000073927
10.0000074006
10.0000074063
10.0000074077
10.0000074082
10.0000074008
10.0000073966
10.0000073748
10.0000073732
10.0000073289
10.0000073634
10.0000000147
10.0000001181
10.0000002183
10.0000003198
10.0000004254
10.0000005326
10.00000064
10.0000007474
10.0000008549
10.0000009632
10.0000010726
10.0000011835
10.0000012963
10.0000014114
10.0000015286
10.0000016478
10.0000017688
10.0000018914
10.0000020151
10.00000214
10.0000022649
10.0000023909
10.0000025154
10.0000026414
10.0000027632
10.0000028885
10.0000030046
10.0000031293
10.0000032355
10.000003361
10.0000034511
10.0000035809
10.0000036465
10.0000037857
10.0000038165
10.0000039707
10.0000039574
10.0000041279
10.0000040677
10.0000042458
10.0000041482
10.0000043118
10.0000041986
10.0000043175
10.0000042128
10.0000042647
10.0000041784
10.0000041631
10.0000040846
10.0000040198
10.000003931
10.0000038344
10.0000037251
10.0000036053
10.000003476
10.0000033393
10.0000031977
10.0000030555
10.0000029172
10.0000027893
10.0000026781
10.0000025917
10.0000025365
10.0000025191
10.000002542
10.0000026054
10.0000027042
10.0000028321
10.0000029807
10.0000031441
10.0000033171
10.0000034968
10.0000036801
10.0000038649
10.0000040489
10.0000042299
10.0000044061
10.0000045759
10.0000047384
10.0000048925
10.0000050378
10.0000051735
10.0000052996
10.0000054158
10.0000055223
10.0000056193
10.0000057075
10.0000057872
10.0000058594
10.0000059247
10.0000059841
10.0000060383
10.0000060882
10.0000061343
10.0000061772
10.0000062173
10.0000062552
10.0000062909
10.0000063247
10.0000063567
10.0000063871
10.0000064157
10.0000064428
10.0000064682
10.0000064919
10.000006514
10.0000065343
10.000006553
10.0000065699
10.000006585
10.0000065984
10.00000661
10.0000066198
10.0000066278
10.000006634
10.0000066385
10.000006641
10.0000066421
10.0000066405
10.0000066383
10.0000066318
10.0000066265
10.0000066123
10.0000066052
10.0000065767
10.0000065757
10.0000065231
10.0000065608
10.0000000152
10.0000001213
10.0000002244
10.0000003278
10.0000004349
10.0000005436
10.0000006524
10.0000007607
10.0000008686
10.0000009767
10.0000010853
10.0000011946
10.0000013051
10.0000014173
10.000001531
10.0000016463
10.0000017629
10.0000018809
10.0000019994
10.0000021195
10.0000022388
10.0000023603
10.0000024787
10.0000026014
10.0000027161
10.000002841
10.0000029476
10.0000030775
10.0000031688
10.0000033105
10.0000033738
10.00000354
10.0000035556
10.0000037664
10.0000037064
10.0000039881
10.0000038214
10.0000041971
10.0000039028
10.0000043744
10.0000039639
10.0000044899
10.0000040241
10.0000045153
10.0000040918
10.0000044464
10.0000041457
10.0000043133
10.0000041422
10.0000041554
10.0000040521
10.0000039821
10.0000038824
10.0000037747
10.0000036537
10.0000035221
10.0000033822
10.0000032379
10.0000030943
10.0000029584
10.0000028383
10.0000027429
10.0000026809
10.0000026597
10.0000026829
10.0000027495
10.0000028538
10.0000029872
10.0000031408
10.000003307
10.0000034809
10.0000036588
10.0000038381
10.0000040165
10.000004192
10.0000043627
10.0000045274
10.0000046851
10.0000048351
10.0000049769
10.0000051101
10.0000052344
10.0000053492
10.0000054544
10.0000055496
10.0000056353
10.0000057113
10.0000057785
10.0000058372
10.0000058883
10.0000059323
10.0000059701
10.0000060024
10.00000603
10.0000060534
10.0000060733
10.0000060901
10.0000061043
10.0000061162
10.000006126
10.000006134
10.0000061404
10.0000061453
10.0000061488
10.000006151
10.0000061521
10.0000061519
10.0000061507
10.0000061484
10.0000061451
10.0000061407
10.0000061353
10.0000061289
10.0000061215
10.000006113
10.0000061037
10.0000060928
10.0000060816
10.000006068
10.0000060551
10.0000060376
10.0000060234
10.0000059988
10.000005985
10.0000059464
10.0000059411
10.0000058781
10.0000059115
10.0000000152
10.0000001228
10.0000002277
10.0000003331
10.0000004425
10.0000005533
10.0000006638
10.0000007735
10.0000008825
10.000000991
10.0000010995
10.0000012082
10.0000013177
10.0000014282
10.0000015398
10.0000016528
10.0000017665
10.0000018817
10.0000019968
10.0000021141
10.0000022293
10.0000023487
10.0000024622
10.0000025847
10.0000026926
10.0000028215
10.0000029168
10.0000030596
10.0000031291
10.0000033019
10.0000033205
10.0000035539
10.000003478
10.0000038247
10.0000035851
10.0000041236
10.0000036267
10.0000044514
10.0000036016
10.0000047846
10.0000035403
10.0000050595
10.0000035125
10.000005182
10.0000035977
10.0000050844
10.0000038101
10.0000048023
10.0000040466
10.0000044744
10.0000041553
10.0000042123
10.0000040798
10.0000039948
10.0000038759
10.0000037454
10.0000036013
10.0000034474
10.0000032901
10.0000031385
10.0000030017
10.0000028917
10.0000028197
10.0000027966
10.0000028258
10.0000029053
10.0000030258
10.0000031765
10.0000033458
10.0000035251
10.0000037083
10.0000038916
10.0000040721
10.0000042469
10.0000044143
10.0000045728
10.0000047221
10.0000048617
10.0000049925
10.0000051144
10.0000052281
10.0000053333
10.0000054302
10.0000055183
10.0000055976
10.0000056679
10.0000057296
10.0000057827
10.000005828
10.000005866
10.0000058972
10.0000059223
10.0000059418
10.0000059564
10.0000059667
10.0000059731
10.0000059762
10.0000059764
10.000005974
10.0000059693
10.0000059627
10.0000059542
10.0000059442
10.0000059328
10.0000059201
10.0000059063
10.0000058914
10.0000058757
10.000005859
10.0000058416
10.0000058234
10.0000058045
10.0000057848
10.0000057647
10.0000057436
10.0000057222
10.0000056995
10.0000056771
10.0000056521
10.0000056289
10.0000056004
10.000005577
10.0000055416
10.0000055201
10.0000054708
10.0000054591
10.0000053855
10.0000054112
10.0000000154
10.0000001255
10.0000002329
10.00000034
10.0000004506
10.0000005626
10.0000006745
10.0000007854
10.0000008954
10.0000010046
10.0000011134
10.0000012222
10.0000013311
10.000001441
10.0000015514
10.000001663
10.0000017748
10.0000018884
10.000002001
10.0000021169
10.0000022291
10.000002348
10.0000024572
10.0000025815
10.0000026826
10.0000028186
10.000002901
10.0000030621
10.0000031043
10.0000033194
10.0000032782
10.0000036053
10.000003399
10.0000039448
10.0000034299
10.000004374
10.0000033249
10.0000049292
10.000003048
10.0000056147
10.0000026201
10.0000063456
10.0000021785
10.0000069023
10.0000019871
10.0000069871
10.0000022952
10.0000064513
10.0000030615
10.000005539
10.000003853
10.0000047487
10.0000042223
10.0000043137
10.000004152
10.0000040365
10.0000038867
10.00000372
10.0000035476
10.000003378
10.0000032171
10.0000030822
10.0000029967
10.0000029718
10.0000030037
10.0000030827
10.0000032012
10.0000033527
10.0000035301
10.0000037235
10.0000039235
10.0000041216
10.0000043119
10.00000449
10.000004654
10.0000048034
10.0000049388
10.0000050616
10.0000051734
10.0000052757
10.0000053695
10.0000054554
10.0000055336
10.0000056039
10.0000056663
10.0000057207
10.0000057671
10.000005806
10.0000058375
10.0000058625
10.0000058813
10.0000058947
10.0000059031
10.0000059068
10.0000059065
10.0000059025
10.0000058954
10.0000058854
10.0000058728
10.000005858
10.0000058412
10.0000058227
10.0000058025
10.000005781
10.0000057581
10.0000057341
10.0000057092
10.0000056833
10.0000056566
10.0000056292
10.0000056011
10.0000055725
10.0000055431
10.0000055134
10.0000054827
10.0000054521
10.0000054199
10.0000053885
10.0000053542
10.0000053223
10.0000052844
10.000005253
10.000005208
10.0000051792
10.00000512
10.0000051017
10.0000050183
10.0000050352
10.0000000155
10.0000001269
10.0000002364
10.0000003452
10.0000004574
10.0000005709
10.0000006843
10.0000007966
10.0000009078
10.000001018
10.0000011276
10.0000012368
10.000001346
10.0000014558
10.0000015657
10.0000016769
10.0000017877
10.0000019007
10.0000020119
10.0000021273
10.0000022376
10.0000023569
10.0000024633
10.0000025903
10.0000026865
10.0000028294
10.000002902
10.0000030798
10.0000030997
10.0000033534
10.0000032598
10.0000036751
10.0000033442
10.0000040922
10.0000032857
10.0000046852
10.000002978
10.0000055707
10.0000022865
10.0000068674
10.0000011146
10.0000085874
9.99999956008
10.000010445
9.99999811469
10.0000117088
9.99999766044
10.000011466
9.99999889045
10.0000094786
10.0000013697
10.0000068386
10.0000035402
10.000005064
10.0000043281
10.0000043948
10.0000041786
10.0000039975
10.000003816
10.0000036036
10.0000033724
10.0000032134
10.0000031669
10.0000031573
10.0000030915
10.0000029695
10.0000028746
10.0000028992
10.0000030779
10.0000033807
10.0000037438
10.0000041063
10.0000044298
10.0000046989
10.0000049149
10.0000050861
10.0000052227
10.0000053334
10.0000054257
10.0000055046
10.000005574
10.0000056354
10.0000056899
10.0000057375
10.0000057782
10.0000058117
10.0000058385
10.0000058585
10.0000058727
10.0000058812
10.000005885
10.0000058845
10.0000058803
10.0000058727
10.0000058619
10.0000058481
10.0000058317
10.0000058128
10.000005792
10.0000057691
10.0000057446
10.0000057185
10.000005691
10.0000056623
10.0000056325
10.0000056017
10.00000557
10.0000055375
10.0000055042
10.0000054703
10.0000054357
10.0000054005
10.0000053647
10.0000053284
10.0000052913
10.000005254
10.0000052153
10.0000051771
10.0000051359
10.0000050972
10.0000050521
10.0000050137
10.000004961
10.0000049252
10.000004858
10.0000048321
10.0000047402
10.0000047467
10.0000000154
10.0000001292
10.0000002407
10.0000003511
10.0000004642
10.0000005787
10.000000693
10.0000008065
10.0000009189
10.0000010302
10.0000011406
10.0000012506
10.0000013603
10.0000014705
10.0000015804
10.0000016916
10.0000018021
10.0000019149
10.0000020254
10.0000021407
10.0000022502
10.0000023699
10.0000024754
10.0000026034
10.0000026988
10.0000028442
10.0000029154
10.0000030984
10.0000031149
10.0000033804
10.0000032749
10.0000037211
10.0000033482
10.0000041852
10.0000032401
10.0000048995
10.0000027725
10.0000060914
10.0000016497
10.000008106
9.99999947697
10.0000113225
9.99999595229
10.0000158101
9.99999138302
10.0000206724
9.99998736155
10.000023598
9.99998664335
10.0000219202
9.99999096802
10.0000156111
9.99999813807
10.0000087221
10.0000032429
10.0000052767
10.0000043768
10.0000044326
10.0000042042
10.0000037323
10.0000034415
10.0000037001
10.000003893
10.0000028841
10.0000003061
9.99999697056
9.99999422538
9.99999305582
9.99999365276
9.99999553205
9.99999795317
10.0000002848
10.0000021751
10.0000035339
10.0000044299
10.0000049875
10.0000053237
10.0000055251
10.0000056475
10.000005725
10.0000057773
10.0000058162
10.000005848
10.0000058757
10.0000059001
10.0000059207
10.0000059363
10.0000059461
10.0000059492
10.0000059458
10.0000059363
10.0000059215
10.0000059022
10.0000058797
10.0000058544
10.000005827
10.0000057979
10.0000057676
10.0000057363
10.0000057043
10.0000056715
10.0000056382
10.0000056042
10.0000055696
10.0000055344
10.0000054985
10.000005462
10.0000054248
10.0000053871
10.0000053486
10.0000053097
10.0000052697
10.0000052296
10.0000051882
10.0000051468
10.0000051038
10.0000050607
10.000005016
10.0000049705
10.000004924
10.0000048744
10.0000048265
10.0000047689
10.0000047212
10.0000046484
10.0000046068
10.000004508
10.0000044914
10.0000000158
10.0000001309
10.0000002442
10.0000003562
10.0000004704
10.0000005858
10.0000007011
10.0000008157
10.0000009292
10.0000010417
10.0000011531
10.0000012642
10.0000013747
10.0000014856
10.0000015961
10.0000017076
10.0000018184
10.0000019314
10.0000020422
10.0000021576
10.0000022678
10.0000023872
10.0000024946
10.0000026214
10.0000027213
10.0000028628
10.0000029445
10.0000031169
10.0000031561
10.0000033957
10.0000033378
10.0000037271
10.0000034469
10.0000041738
10.0000033868
10.0000048761
10.0000029473
10.0000061321
10.0000016989
10.0000085234
9.99999885932
10.0000130272
9.99999327328
10.0000208325
9.99998393469
10.0000323239
9.99997161398
10.0000449255
9.99996112333
10.0000516247
9.99996068193
10.0000449591
9.99997421565
10.0000267984
9.99999314418
10.0000104738
10.0000031551
10.0000057244
10.0000038774
10.0000029323
10.0000051443
10.0000077599
10.000001375
9.99997918222
9.99994471086
9.99990956662
9.99988577454
9.99987956462
9.99988992925
9.99991097533
9.99993560212
9.99995826239
9.99997606944
9.99998848074
9.99999633786
10.0000009411
10.0000034828
10.000004831
10.0000055311
10.0000058883
10.00000606
10.0000061232
10.0000061188
10.0000060723
10.0000060036
10.000005928
10.0000058572
10.0000057978
10.0000057528
10.0000057216
10.0000057022
10.000005691
10.000005685
10.000005681
10.0000056769
10.0000056707
10.0000056612
10.0000056478
10.0000056304
10.0000056091
10.0000055843
10.000005556
10.0000055251
10.0000054915
10.0000054559
10.0000054182
10.0000053795
10.0000053388
10.0000052979
10.0000052547
10.0000052124
10.0000051669
10.0000051236
10.0000050755
10.0000050315
10.0000049799
10.0000049352
10.0000048785
10.0000048323
10.0000047685
10.0000047188
10.000004645
10.0000045876
10.0000045007
10.0000044271
10.0000043268
10.000004224
10.0000041194
10.0000000154
10.0000001328
10.0000002476
10.0000003609
10.000000476
10.0000005921
10.0000007081
10.0000008236
10.0000009381
10.0000010516
10.0000011642
10.0000012764
10.0000013879
10.0000014996
10.0000016108
10.000001723
10.0000018344
10.0000019477
10.0000020594
10.0000021747
10.0000022865
10.0000024051
10.000002516
10.0000026401
10.0000027475
10.0000028814
10.0000029799
10.0000031326
10.0000032093
10.0000034008
10.0000034263
10.0000037023
10.000003606
10.0000040767
10.000003685
10.0000046237
10.0000035016
10.0000055946
10.000002656
10.0000076004
10.0000002142
10.0000120063
9.99999422988
10.0000214157
9.99998142837
10.000039488
9.9999584137
10.0000680799
9.9999266842
10.0001002125
9.99990017226
10.0001153465
9.99990239696
10.0000935383
9.99994159892
10.0000438095
9.99998930325
10.0000110337
9.99999727229
10.0000088681
10.0000263661
9.99999759544
9.99985729454