/*--------------------------------*- C++ -*----------------------------------*\
  =========                 |
  \\      /  F ield         | OpenFOAM: The Open Source CFD Toolbox
   \\    /   O peration     | Website:  https://openfoam.org
    \\  /    A nd           | Version:  7
     \\/     M anipulation  |
\*---------------------------------------------------------------------------*/
FoamFile
{
    version     2.0;
    format      ascii;
    class       volScalarField;
    location    "2520";
    object      p;
}
// * * * * * * * * * * * * * * * * * * * * * * * * * * * * * * * * * * * * * //

dimensions      [0 2 -2 0 0 0 0];

internalField   nonuniform List<scalar> 
8192
(
0.000578555831433
0.000407005416296
0.000321387949273
0.000277272688098
0.000252246245198
0.000237007847793
0.000227139300234
0.000220395870892
0.000215570555163
0.00021197925985
0.000209214592129
0.000207022621867
0.000205238467317
0.000203751170006
0.000202483733611
0.000201381321931
0.000200404015642
0.000199522210693
0.000198713601245
0.000197961144256
0.000197251650553
0.000196574786645
0.000195922352392
0.000195287747876
0.000194665572344
0.000194051316635
0.000193441122357
0.000192831588863
0.000192219614109
0.00019160225913
0.000190976628815
0.000190339762567
0.000189688529393
0.000189019523286
0.000188328955266
0.000187612539071
0.000186865367905
0.000186081780381
0.000185255214519
0.000184378049982
0.00018344144025
0.000182435138939
0.000181347327403
0.000180164455058
0.000178871108614
0.000177449932464
0.000175881628231
0.000174145067332
0.000172217553567
0.000170075273006
0.000167693962149
0.000165049812639
0.000162120609161
0.000158887069544
0.000155334323009
0.000151453430199
0.000147242818544
0.000142709484821
0.00013786980429
0.000132749792242
0.000127384696153
0.000121817868439
0.000116098976874
0.000110281734717
0.000104421431259
9.85725784617e-05
9.27869431934e-05
8.7112111907e-05
8.15905965118e-05
7.62593931114e-05
7.11498434819e-05
6.62876492179e-05
6.16929287001e-05
5.73802680908e-05
5.33587729948e-05
4.96321662087e-05
4.6198989109e-05
4.30529551012e-05
4.01834761575e-05
3.75763508468e-05
3.52145708159e-05
3.30791834089e-05
3.11501415702e-05
2.9407080455e-05
2.78299762318e-05
2.63996635493e-05
2.5098206685e-05
2.39091347764e-05
2.28175603814e-05
2.18102053694e-05
2.08753579772e-05
2.00027830482e-05
1.91836034704e-05
1.8410167257e-05
1.76759105674e-05
1.6975224083e-05
1.63033271907e-05
1.5656152769e-05
1.50302436139e-05
1.4422660852e-05
1.38309037541e-05
1.32528402536e-05
1.26866470039e-05
1.21307579873e-05
1.15838204443e-05
1.10446571853e-05
1.05122341988e-05
9.98563279969e-06
9.46402544509e-06
8.94665469011e-06
8.43281466408e-06
7.92183482321e-06
7.41306571295e-06
6.90586695904e-06
6.39959788562e-06
5.89361198405e-06
5.38725722351e-06
4.87988603959e-06
4.37088141627e-06
3.85971063144e-06
3.34602706621e-06
2.8298579034e-06
2.31194952571e-06
1.7944141204e-06
1.28198225449e-06
7.84567469704e-07
3.23570195651e-07
5.72314395674e-09
0.000429642807282
0.00036612824543
0.000316438223706
0.000283785757597
0.00026186293139
0.000246679427511
0.000235856662677
0.000227929900658
0.000221974026866
0.000217390762999
0.000213784119108
0.000210885956491
0.000208510674308
0.000206527109035
0.000204840767747
0.000203382368114
0.000202100295339
0.000200955536728
0.000199918213069
0.000198965158526
0.000198078201678
0.000197242923711
0.000196447746695
0.000195683253683
0.000194941673789
0.000194216486026
0.000193502109303
0.000192793655314
0.000192086727008
0.000191377249914
0.000190661327487
0.000189935112712
0.000189194689631
0.000188435960245
0.000187654532926
0.00018684560929
0.000186003867085
0.000185123337489
0.000184197276021
0.000183218027514
0.000182176887027
0.000181063960712
0.000179868033105
0.000178576450801
0.000177175036183
0.000175648049561
0.000173978222414
0.000172146888653
0.000170134242904
0.000167919754467
0.000165482760025
0.00016280324747
0.000159862825405
0.000156645850281
0.000153140656467
0.000149340808858
0.000145246274497
0.000140864393535
0.000136210521265
0.000131308218125
0.000126188889653
0.000120890834452
0.000115457744544
0.000109936805221
0.000104376624612
9.8825251858e-05
9.33285100902e-05
8.79287629021e-05
8.26641187939e-05
7.75680066374e-05
7.26690018156e-05
6.79907842009e-05
6.3552142262e-05
5.93669859514e-05
5.54443746175e-05
5.17885957986e-05
4.83993396594e-05
4.52720057793e-05
4.23981570283e-05
3.97661089367e-05
3.73616180196e-05
3.51686171633e-05
3.31699414246e-05
3.13479944805e-05
2.9685319228e-05
2.81650528927e-05
2.67712619899e-05
2.54891647546e-05
2.43052558916e-05
2.3207352407e-05
2.21845794403e-05
2.12273137579e-05
2.03270996536e-05
1.94765492687e-05
1.8669236186e-05
1.78995888452e-05
1.71627879895e-05
1.64546709393e-05
1.57716440474e-05
1.51106040201e-05
1.44688679947e-05
1.38441120654e-05
1.32343175405e-05
1.26377242715e-05
1.20527901834e-05
1.14781563148e-05
1.09126165616e-05
1.03550915418e-05
9.80460593878e-06
9.26026892379e-06
8.72125724129e-06
8.1868008278e-06
7.65617088816e-06
7.1286707537e-06
6.60363007706e-06
6.08040360084e-06
5.55837641509e-06
5.03697901121e-06
4.51571725841e-06
3.99422566442e-06
3.47235712079e-06
2.95033059882e-06
2.42897167528e-06
1.9101045029e-06
1.39719541826e-06
8.9645552491e-07
4.1829869157e-07
4.74407263504e-08
0.000346696909902
0.000324028242954
0.000298035415346
0.00027679810029
0.000260678278642
0.000248366912057
0.000238844640608
0.000231383946888
0.0002254629167
0.000220702438949
0.000216824293751
0.000213622504328
0.000210943293288
0.000208670871091
0.000206717285495
0.000205015132408
0.000203512292636
0.000202168107103
0.00020095057673
0.000199834295446
0.00019879891066
0.00019782796574
0.000196908021123
0.000196027980117
0.000195178566135
0.000194351912631
0.000193541237289
0.000192740579526
0.000191944584872
0.000191148324244
0.000190347139951
0.000189536510562
0.000188711928306
0.000187868784773
0.000187002261183
0.000186107220325
0.000185178097902
0.000184208791825
0.000183192548729
0.00018212184811
0.000180988285634
0.000179782459014
0.000178493861763
0.000177110793045
0.000175620294781
0.000174008131134
0.00017225882899
0.000170355801907
0.000168281581867
0.00016601818345
0.000163547620628
0.000160852587778
0.000157917301163
0.000154728477637
0.000151276403771
0.000147556026493
0.000143567976474
0.000139319422198
0.000134824643791
0.00013010521666
0.000125189710421
0.000120112853795
0.000114914194134
0.000109636381816
0.000104323295868
9.90182569574e-05
9.37625484421e-05
8.85943476275e-05
8.3548054926e-05
7.86539533941e-05
7.3938078045e-05
6.94221833078e-05
6.51237331881e-05
6.10558866783e-05
5.72274911582e-05
5.36431223462e-05
5.03032150049e-05
4.72043193929e-05
4.43394965433e-05
4.16988404364e-05
3.92700916568e-05
3.70392935784e-05
3.49914386279e-05
3.31110598638e-05
3.13827360398e-05
2.9791494157e-05
2.83231067497e-05
2.69642917284e-05
2.57028282818e-05
2.45276053128e-05
2.34286185248e-05
2.239693106e-05
2.14246099211e-05
2.0504648185e-05
1.96308803241e-05
1.87978961592e-05
1.8000957001e-05
1.72359164721e-05
1.64991472599e-05
1.57874745693e-05
1.5098116316e-05
1.44286299859e-05
1.377686567e-05
1.31409248718e-05
1.251912443e-05
1.19099650939e-05
1.13121041163e-05
1.0724331467e-05
1.01455491482e-05
9.57475335413e-06
9.01101913194e-06
8.45348749831e-06
7.9013549327e-06
7.35386553949e-06
6.81030624424e-06
6.27000591736e-06
5.73233961538e-06
5.19673998149e-06
4.6627186054e-06
4.12990166031e-06
3.59808587213e-06
3.06732389452e-06
2.53805232148e-06
2.01128210061e-06
1.48887781375e-06
9.7389545932e-07
4.70343431194e-07
5.89079882456e-08
0.000302149770836
0.000293758024013
0.000279561956254
0.000265766192029
0.000254334487297
0.000245056217941
0.000237478866064
0.000231234374396
0.000226044733686
0.000221697444501
0.000218026756355
0.000214901572557
0.00021221738718
0.00020989052008
0.000207853760559
0.000206052972612
0.000204444414253
0.000202992611881
0.000201668673702
0.000200448951604
0.000199313978942
0.00019824762602
0.000197236426803
0.000196269039985
0.000195335815332
0.0001944284424
0.000193539663602
0.000192663037788
0.000191792741828
0.000190923401895
0.000190049948743
0.000189167490055
0.000188271194589
0.000187356184834
0.000186417434974
0.000185449671671
0.000184447275659
0.0001834041828
0.000182313783854
0.000181168823093
0.000179961296815
0.000178682354295
0.000177322205292
0.000175870040655
0.000174313975166
0.000172641025284
0.000170837137977
0.000168887290652
0.000166775684963
0.000164486058421
0.000162002135137
0.000159308229846
0.00015639000576
0.000153235368035
0.000149835451944
0.000146185643058
0.000142286548335
0.000138144824158
0.00013377375734
0.000129193489116
0.000124430777277
0.000119518227037
0.000114493001025
0.000109395134345
0.000104265687094
9.91450019412e-05
9.40713141864e-05
8.90798069395e-05
8.42020718955e-05
7.94658919671e-05
7.48952034337e-05
7.05101154079e-05
6.63269124387e-05
6.23580210722e-05
5.861196488e-05
5.50933568698e-05
5.18029815884e-05
4.87380063939e-05
4.58923368408e-05
4.32571029838e-05
4.08212385782e-05
3.85721010686e-05
3.64960784267e-05
3.45791383566e-05
3.28072904418e-05
3.11669482824e-05
2.96451920343e-05
2.82299411958e-05
2.69100521942e-05
2.56753569615e-05
2.45166577044e-05
2.34256912125e-05
2.23950734118e-05
2.14182325672e-05
2.04893372156e-05
1.96032232478e-05
1.87553230033e-05
1.79415982884e-05
1.71584783174e-05
1.64028031275e-05
1.56717725222e-05
1.49629004478e-05
1.4273974448e-05
1.36030198525e-05
1.29482682185e-05
1.23081296323e-05
1.16811684047e-05
1.10660818181e-05
1.04616815403e-05
9.86687746084e-06
9.28066369226e-06
8.70210662942e-06
8.13033497833e-06
7.56453185019e-06
7.00392907978e-06
6.44780417881e-06
5.89548049233e-06
5.34633151476e-06
4.79979069314e-06
4.25536877867e-06
3.71268174559e-06
3.17149399895e-06
2.63178378413e-06
2.09383884935e-06
1.55837527026e-06
1.02655884672e-06
4.99265552573e-07
6.07865505519e-08
0.000274539435382
0.000272563158461
0.000264756306608
0.000255556735714
0.000247269593327
0.00024023237435
0.000234288196668
0.000229231804946
0.000224894888243
0.00022114777181
0.000217889175136
0.000215037830522
0.000212527095738
0.000210301582261
0.000208314925804
0.000206528182597
0.000204908585254
0.000203428528451
0.000202064720632
0.000200797467481
0.00019961006556
0.000198488289812
0.000197419961234
0.000196394582624
0.000195403031666
0.00019443730185
0.000193490282953
0.000192555574646
0.00019162732456
0.000190700087552
0.000189768703127
0.000188828185343
0.000187873621613
0.000186900078279
0.000185902510523
0.000184875674637
0.00018381404099
0.000182711706487
0.000181562305709
0.000180358920572
0.000179093989055
0.000177759214685
0.000176345479795
0.000174842767643
0.000173240100906
0.000171525507403
0.000169686027676
0.000167707783382
0.000165576129278
0.0001632759142
0.000160791875631
0.000158109186792
0.000155214162435
0.000152095110285
0.000148743291168
0.000145153927717
0.000141327183242
0.000137269020206
0.000132991836305
0.000128514762069
0.000123863494697
0.000119069566826
0.00011416903453
0.000109200713153
0.000104204232415
9.92182298394e-05
9.4278982787e-05
8.94195653008e-05
8.46694501376e-05
8.00544433442e-05
7.5596770781e-05
7.13151730556e-05
6.72249313756e-05
6.33378150872e-05
5.96619917585e-05
5.62019650548e-05
5.29586058164e-05
4.99293242578e-05
4.71084014765e-05
4.44874648629e-05
4.20560632414e-05
3.98022821343e-05
3.77133394906e-05
3.57761150003e-05
3.39775847236e-05
3.23051513903e-05
3.07468748702e-05
2.92916161136e-05
2.79291114672e-05
2.66499945374e-05
2.54457808167e-05
2.43088276474e-05
2.32322791739e-05
2.2210003462e-05
2.12365267822e-05
2.03069684854e-05
1.94169786031e-05
1.85626794828e-05
1.77406120861e-05
1.69476872131e-05
1.61811415823e-05
1.54384985773e-05
1.47175333162e-05
1.40162417018e-05
1.33328130428e-05
1.26656058918e-05
1.20131267147e-05
1.13740110878e-05
1.07470071013e-05
1.01309607384e-05
9.52480299106e-06
8.9275385705e-06
8.33823607068e-06
7.75601955245e-06
7.18006153964e-06
6.60957756156e-06
6.04382246146e-06
5.4820889394e-06
4.92370906559e-06
4.36806004974e-06
3.81457625629e-06
3.26277039269e-06
2.71226673737e-06
2.16284346979e-06
1.61444967985e-06
1.06703897178e-06
5.19734307776e-07
6.11374650572e-08
0.000256201222968
0.000257085683202
0.000253033355406
0.000246890560165
0.000240789101265
0.000235350725412
0.000230625857578
0.000226519471388
0.00022292484474
0.00021975337883
0.000216935614701
0.000214416677216
0.000212152076724
0.0002101048101
0.000208243510876
0.000206541267356
0.000204974828803
0.000203524030296
0.000202171342919
0.000200901500791
0.000199701180456
0.000198558720239
0.000197463872827
0.000196407586801
0.000195381813803
0.000194379338431
0.00019339362801
0.000192418700862
0.000191449006076
0.000190479316462
0.000189504633513
0.000188520099348
0.000187520914026
0.000186502257031
0.00018545921124
0.000184386687917
0.000183279351386
0.000182131542338
0.000180937198879
0.000179689774912
0.000178382155894
0.000177006572873
0.000175554516834
0.000174016657139
0.000172382770143
0.000170641687417
0.000168781277078
0.000166788476805
0.000164649402274
0.000162349559175
0.000159874188311
0.000157208769231
0.00015433969566
0.000151255115193
0.000147945898824
0.000144406679764
0.000140636882216
0.000136641650622
0.000132432578535
0.000128028112483
0.00012345347629
0.000118739966366
0.000113923561783
0.000109042982429
0.00010413753127
9.92451264423e-05
9.4400905114e-05
8.96364779751e-05
8.49796966701e-05
8.04547761172e-05
7.60825365793e-05
7.18805913953e-05
6.78633982027e-05
6.40421786058e-05
6.04247700931e-05
5.70154977394e-05
5.38151487632e-05
5.08211093002e-05
4.80276858011e-05
4.54265917902e-05
4.30075457781e-05
4.07589085755e-05
3.86682907742e-05
3.67230790809e-05
3.49108540336e-05
3.32196936534e-05
3.16383729122e-05
3.01564771191e-05
2.87644495122e-05
2.74535920204e-05
2.62160349096e-05
2.50446875044e-05
2.39331787739e-05
2.28757939217e-05
2.18674109526e-05
2.09034397383e-05
1.99797649741e-05
1.90926937586e-05
1.82389080034e-05
1.74154216363e-05
1.66195423346e-05
1.58488374784e-05
1.51011039232e-05
1.4374341224e-05
1.36667279095e-05
1.29766004696e-05
1.23024347029e-05
1.16428291437e-05
1.09964902781e-05
1.03622193274e-05
9.7389003699e-06
9.125489638e-06
8.52100582229e-06
7.92452128602e-06
7.33515410484e-06
6.75206094441e-06
6.17443085642e-06
5.60148025747e-06
5.03244955399e-06
4.46660220702e-06
3.90322725042e-06
3.34164595621e-06
2.7812204621e-06
2.22135088515e-06
1.66141083587e-06
1.10047591977e-06
5.36551651844e-07
6.1813592891e-08
0.000243330414991
0.000245441294577
0.000243631788658
0.000239604196741
0.000235108563337
0.00023086160819
0.000227052621665
0.000223675974041
0.000220674298729
0.000217987175307
0.000215563598905
0.000213362789158
0.000211352139971
0.000209505051023
0.000207799282231
0.000206215832205
0.000204738199089
0.00020335188891
0.000202044074974
0.000200803347061
0.000199619514114
0.000198483439876
0.000197386900217
0.000196322456075
0.000195283338663
0.000194263345
0.000193256742313
0.000192258182126
0.000191262616715
0.000190265222951
0.000189261333835
0.000188246371972
0.000187215785468
0.000186164985469
0.000185089284227
0.00018398383261
0.000182843555997
0.000181663087551
0.000180436697955
0.000179158220896
0.000177820973881
0.000176417674552
0.000174940353559
0.000173380266533
0.000171727809883
0.000169972448463
0.000168102667613
0.000166105968009
0.000163968928496
0.000161677368741
0.000159216647516
0.000156572130543
0.000153729850092
0.000150677355293
0.000147404720268
0.000143905645973
0.000140178572024
0.00013622770915
0.000132063895255
0.000127705143554
0.000123176690338
0.000118510321622
0.00011374285665
0.000108913923419
0.000104063459604
9.92294807496e-05
9.44466151678e-05
8.97454713727e-05
8.51526152054e-05
8.06909302783e-05
7.6380053254e-05
7.22366706008e-05
6.82745907885e-05
6.4504618797e-05
6.0934328807e-05
5.7567851881e-05
5.44057838959e-05
5.14452876065e-05
4.8680416411e-05
4.61026345288e-05
4.37014644233e-05
4.14651718984e-05
3.9381405858e-05
3.74377352115e-05
3.5622056711e-05
3.39228740368e-05
3.232946525e-05
3.08319629582e-05
2.94213718734e-05
2.80895450131e-05
2.68291350367e-05
2.56335325697e-05
2.44967994995e-05
2.34136023037e-05
2.23791483954e-05
2.13891270713e-05
2.04396557512e-05
1.95272316388e-05
1.86486886154e-05
1.78011589988e-05
1.69820397264e-05
1.61889624912e-05
1.54197673764e-05
1.46724795552e-05
1.3945288663e-05
1.32365304823e-05
1.25446706225e-05
1.18682899072e-05
1.12060712141e-05
1.05567875413e-05
9.91929109564e-06
9.29250322284e-06
8.67540502229e-06
8.06702851255e-06
7.46644824728e-06
6.87277332687e-06
6.28513981238e-06
5.70270363276e-06
5.12463415187e-06
4.55010854797e-06
3.97830675875e-06
3.40840516615e-06
2.83956231265e-06
2.27087662622e-06
1.70126416957e-06
1.12914541469e-06
5.51790204542e-07
6.37323961182e-08
0.000233881598627
0.000236455934195
0.000235994453587
0.000233449313262
0.00023016965179
0.000226850164724
0.000223756145163
0.00022094983841
0.000218416899899
0.000216121765326
0.000214028073365
0.000212104578355
0.00021032578626
0.000208671029898
0.000207123327656
0.00020566843024
0.000204294119559
0.000202989719376
0.000201745758836
0.000200553738535
0.000199405962581
0.000198295412226
0.000197215645513
0.000196160713421
0.000195125086744
0.000194103590339
0.000193091342733
0.000192083701255
0.000191076205928
0.000190064526678
0.000189044416391
0.000188011662355
0.000186962038163
0.000185891255385
0.000184794914177
0.000183668452006
0.000182507089532
0.000181305772683
0.000180059109875
0.000178761303394
0.000177406074008
0.000175986578299
0.00017449531872
0.000172924047702
0.000171263669032
0.000169504143054
0.000167634407031
0.000165642328882
0.00016351472104
0.000161237450626
0.000158795689497
0.000156174348907
0.000153358732544
0.000150335415276
0.000147093315449
0.000143624889264
0.000139927354396
0.000136003853275
0.000131864469658
0.000127526967814
0.000123017016436
0.000118367572081
0.000113617191451
0.000108807398614
0.000103979683702
9.91728853959e-05
9.44216228716e-05
8.9755815073e-05
8.52009377782e-05
8.07786920471e-05
7.65076802585e-05
7.24038281821e-05
6.84804666915e-05
6.47481341183e-05
6.12142399355e-05
5.78827437793e-05
5.47539817452e-05
5.18247318267e-05
4.90885526079e-05
4.65363611614e-05
4.41571594026e-05
4.19387941975e-05
3.98686493579e-05
3.79342043974e-05
3.61234363436e-05
3.44250732942e-05
3.28287264446e-05
3.13249329794e-05
2.99051397535e-05
2.85616517194e-05
2.72875623136e-05
2.60766772546e-05
2.49234387218e-05
2.38228538381e-05
2.27704293167e-05
2.17621129381e-05
2.07942417734e-05
1.98634967325e-05
1.89668628118e-05
1.8101594398e-05
1.72651849664e-05
1.6455340592e-05
1.56699567203e-05
1.49070977363e-05
1.41649789034e-05
1.34419503239e-05
1.27364825927e-05
1.20471538837e-05
1.13726382142e-05
1.07116946847e-05
1.00631574945e-05
9.42592656769e-06
8.79895862851e-06
8.18125859397e-06
7.57187115551e-06
6.96987245217e-06
6.37436173445e-06
5.78445291337e-06
5.19926576878e-06
4.61791625372e-06
4.03950435813e-06
3.46309558706e-06
2.88768637699e-06
2.31213128345e-06
1.73498621696e-06
1.15419222296e-06
5.6653541903e-07
6.74220619953e-08
0.000226688274618
0.000229372424056
0.000229720346939
0.000228218361316
0.000225870384737
0.00022329211162
0.000220776384101
0.000218430604906
0.000216275583117
0.000214298344925
0.000212476168645
0.00021078613554
0.000209208212286
0.000207725731782
0.000206324980081
0.00020499458434
0.000203724951458
0.000202507823603
0.000201335948417
0.000200202841246
0.000199102614836
0.000198029856024
0.00019697953417
0.000195946930552
0.000194927581457
0.000193917230157
0.000192911785241
0.000191907282525
0.000190899846663
0.000189885653777
0.000188860899208
0.000187821762252
0.000186764370273
0.000185684761476
0.000184578845658
0.000183442362143
0.000182270833994
0.000181059517467
0.000179803345516
0.000178496864024
0.000177134159383
0.000175708776077
0.00017421362331
0.000172640870555
0.000170981833626
0.000169226855994
0.00016736519517
0.000165384931719
0.000163272929133
0.00016101488549
0.000158595529785
0.000155999021292
0.000153209601191
0.000150212515129
0.000146995175031
0.000143548475857
0.000139868157948
0.00013595612411
0.000131821648072
0.000127482362443
0.000122964739679
0.000118303588661
0.000113540156073
0.00010871892357
0.000103883887458
9.90753993868e-05
9.43284698562e-05
8.96725110428e-05
8.51319774573e-05
8.0727436629e-05
7.64765453853e-05
7.2394612958e-05
6.84946708857e-05
6.47871638646e-05
6.12794646856e-05
5.79754128349e-05
5.48750390807e-05
5.19745901002e-05
4.92668963214e-05
4.67420366775e-05
4.43881788956e-05
4.21924454889e-05
4.01416786037e-05
3.82230299074e-05
3.64243569813e-05
3.47344469881e-05
3.31431072408e-05
3.16411650278e-05
3.02204128077e-05
2.88735254989e-05
2.75939676405e-05
2.63759010974e-05
2.52140990338e-05
2.41038686699e-05
2.30409834814e-05
2.20216244615e-05
2.1042329612e-05
2.0099950635e-05
1.91916158195e-05
1.83146981713e-05
1.74667879628e-05
1.6645668979e-05
1.58492978571e-05
1.50757859993e-05
1.43233836338e-05
1.35904656533e-05
1.28755189288e-05
1.21771308295e-05
1.14939787272e-05
1.082482028e-05
1.01684843223e-05
9.52386219451e-06
8.88989936604e-06
8.26558720003e-06
7.64995471765e-06
7.04206018819e-06
6.44098233356e-06
5.84581079896e-06
5.25563527293e-06
4.66953200469e-06
4.08654513812e-06
3.50565745997e-06
2.9257395498e-06
2.34545601708e-06
1.76309222906e-06
1.1762538707e-06
5.81419490231e-07
7.32301498126e-08
0.000221052941828
0.000223687258672
0.000224517198336
0.000223749849516
0.000222117888475
0.000220139145518
0.000218102127605
0.000216139281127
0.000214297461208
0.000212583047619
0.000210986044504
0.000209491537302
0.000208084559381
0.000206751820092
0.000205482058711
0.000204265865814
0.000203095348615
0.000201963794542
0.000200865386097
0.000199794976856
0.000198747922057
0.000197719952635
0.000196707081736
0.000195705534602
0.000194711694741
0.000193722061207
0.000192733214833
0.000191741786901
0.000190744429995
0.000189737789994
0.000188718482143
0.000187683064527
0.000186628010491
0.000185549679323
0.000184444284461
0.000183307858435
0.000182136213559
0.000180924897259
0.000179669140629
0.000178363798595
0.000177003279741
0.000175581463723
0.000174091604149
0.000172526215294
0.000170876942332
0.000169134417577
0.00016728811043
0.00016532618734
0.000163235410892
0.000161001123934
0.000158607382397
0.000156037312448
0.000153273761947
0.000150300281318
0.00014710240293
0.000143669114195
0.000139994385738
0.00013607865865
0.00013193027004
0.000127566759236
0.000123015727255
0.000118314552696
0.000113508253639
0.000108645496868
0.000103773851924
9.89358796744e-05
9.41672984704e-05
8.94970711056e-05
8.49485756977e-05
8.05412022867e-05
7.62917025833e-05
7.22149072022e-05
6.83237475854e-05
6.46287794127e-05
6.11374978054e-05
5.78536965903e-05
5.47770657271e-05
5.19031687997e-05
4.92238576007e-05
4.67280609958e-05
4.44027830503e-05
4.22341117144e-05
4.02080785022e-05
3.83112865967e-05
3.65312984545e-05
3.48568213021e-05
3.32777471118e-05
3.17851016796e-05
3.03709457429e-05
2.9028257544e-05
2.7750814621e-05
2.6533084264e-05
2.53701266305e-05
2.42575114079e-05
2.31912472459e-05
2.2167722503e-05
2.11836556287e-05
2.02360535979e-05
1.93221769684e-05
1.84395103662e-05
1.7585737389e-05
1.67587191168e-05
1.59564755555e-05
1.5177169478e-05
1.44190922162e-05
1.36806510475e-05
1.29603578716e-05
1.22568189334e-05
1.15687253737e-05
1.08948444264e-05
1.02340110946e-05
9.58512015289e-06
8.94711832353e-06
8.3189964698e-06
7.69978162145e-06
7.08852859502e-06
6.48431085966e-06
5.88621008418e-06
5.29330338166e-06
4.70464646185e-06
4.1192493678e-06
3.53603863086e-06
2.95379469452e-06
2.37104570888e-06
1.7858899245e-06
1.19571792245e-06
5.96834149069e-07
8.13876848647e-08
0.000216540060636
0.000219057072749
0.00022016820069
0.000219917936792
0.000218835931785
0.000217343924575
0.000215708009201
0.000214070137428
0.00021249436008
0.000211002402971
0.000209595531623
0.000208266429847
0.000207005093135
0.000205801484183
0.000204646556856
0.000203532512713
0.000202452729712
0.000201401575774
0.000200374203528
0.000199366365225
0.000198374259743
0.000197394411705
0.000196423578185
0.000195458677387
0.000194496733967
0.000193534836419
0.00019257010555
0.000191599664885
0.00019062061449
0.000189630008342
0.000188624834149
0.000187601991785
0.000186558270745
0.000185490325872
0.000184394650575
0.000183267546649
0.000182105089672
0.000180903088695
0.000179657038662
0.00017836206357
0.000177012847934
0.000175603553647
0.000174127718959
0.000172578136246
0.000170946706043
0.000169224267109
0.000167400407327
0.000165463269495
0.00016339938112
0.000161193558723
0.000158828962625
0.000156287399311
0.00015354996967
0.00015059812259
0.000147415086061
0.000143987539523
0.000140307337873
0.000136373174762
0.000132192235394
0.000127781899713
0.000123171160178
0.000118400745568
0.000113520740601
0.000108585504127
0.000103647448183
9.87520803651e-05
9.39360598887e-05
8.92278249918e-05
8.46494937122e-05
8.02191450325e-05
7.59526306899e-05
7.18644539376e-05
6.79676844076e-05
6.4273235603e-05
6.07889174954e-05
5.75185712771e-05
5.44615082292e-05
5.16124311593e-05
4.89619187771e-05
4.64973882927e-05
4.4204308546e-05
4.20673965347e-05
4.00715956496e-05
3.82027458506e-05
3.64479539535e-05
3.47957277111e-05
3.32359524968e-05
3.17597797739e-05
3.03594775604e-05
2.90282743564e-05
2.77602135496e-05
2.65500257056e-05
2.53930205265e-05
2.42849973372e-05
2.32221717445e-05
2.22011157924e-05
2.12187091053e-05
2.02720988317e-05
1.93586665936e-05
1.84760009832e-05
1.76218744666e-05
1.67942237815e-05
1.59911331279e-05
1.52108195848e-05
1.44516203189e-05
1.37119812248e-05
1.29904467188e-05
1.22856504435e-05
1.15963066947e-05
1.09212023911e-05
1.02591894396e-05
9.60917734261e-06
8.97012589825e-06
8.34103781524e-06
7.72095102562e-06
7.10893038265e-06
6.50405827978e-06
5.90542343169e-06
5.3121065555e-06
4.72316077771e-06
4.13758302626e-06
3.55427001357e-06
2.97194829792e-06
2.38906243275e-06
1.80360067371e-06
1.21284105824e-06
6.13023332333e-07
9.20342613323e-08
0.000212866411592
0.000215242086927
0.000216510021918
0.000216622970853
0.000215962599947
0.000214865606866
0.000213567369506
0.000212208570333
0.000210862876678
0.000209563200014
0.000208320159168
0.000207133320571
0.000205997447496
0.000204905725791
0.000203851294291
0.000202827877825
0.000201829971737
0.000200852819188
0.00019989230571
0.000198944831981
0.00019800719246
0.000197076470417
0.00019614995169
0.000195225055764
0.000194299281432
0.000193370163887
0.000192435243161
0.000191492035218
0.000190538004914
0.000189570546435
0.000188586964177
0.000187584453508
0.000186560080825
0.000185510762104
0.000184433239091
0.000183324052199
0.000182179508981
0.000180995646798
0.000179768187921
0.000178492484753
0.000177163452257
0.000175775483855
0.000174322346287
0.000172797048329
0.000171191678279
0.000169497206741
0.000167703255646
0.000165797844032
0.000163767138148
0.000161595260136
0.000159264244464
0.000156754265822
0.000154044275159
0.000151113140684
0.000147941274905
0.000144512565635
0.000140816333918
0.000136849163291
0.00013261675866
0.000128136125408
0.000123437808163
0.000118566749005
0.000113579718307
0.000108538709396
0.000103502565016
9.85205475648e-05
9.36303925712e-05
8.88597913586e-05
8.42292804961e-05
7.97554065319e-05
7.5453106157e-05
7.13367442206e-05
6.74198269324e-05
6.37139240138e-05
6.02273856928e-05
5.69642044339e-05
5.39232568046e-05
5.10981558791e-05
4.84778364454e-05
4.60477594184e-05
4.37914161343e-05
4.16917689883e-05
3.97323732483e-05
3.78980880132e-05
3.61754133772e-05
3.45525535553e-05
3.30193132434e-05
3.15669132619e-05
3.01877827219e-05
2.88753601624e-05
2.7623918616e-05
2.64284190624e-05
2.52843911316e-05
2.41878375583e-05
2.31351582006e-05
2.21230896867e-05
2.11486572791e-05
2.02091362155e-05
1.93020203424e-05
1.84249963847e-05
1.75759225592e-05
1.67528105746e-05
1.59538102683e-05
1.51771963231e-05
1.44213566233e-05
1.36847819146e-05
1.29660564962e-05
1.22638497294e-05
1.15769081803e-05
1.09040482413e-05
1.02441490844e-05
9.59614580553e-06
8.95902260093e-06
8.33180578719e-06
7.71355640842e-06
7.10336206342e-06
6.50032738668e-06
5.90356228607e-06
5.31216647804e-06
4.7252079314e-06
4.14169132194e-06
3.56051027291e-06
2.98037389562e-06
2.39969446043e-06
1.81642106727e-06
1.22780865095e-06
6.30127683955e-07
1.05228700513e-07
0.000209840649388
0.000212070920707
0.000213417858797
0.000213784757677
0.000213446877069
0.000212669779804
0.000211655986618
0.000210538182217
0.000209393737162
0.000208262920529
0.000207163624784
0.000206101329095
0.000205075192624
0.000204081526392
0.000203115650549
0.000202172815885
0.000201248608404
0.000200339082028
0.000199440757442
0.000198550562097
0.000197665750551
0.000196783824327
0.000195902459717
0.000195019446264
0.000194132635949
0.000193239902121
0.000192339107829
0.000191428077608
0.000190504569465
0.000189566256362
0.000188610707164
0.000187635368157
0.00018663754414
0.00018561437824
0.00018456282957
0.000183479647745
0.000182361343069
0.000181204150919
0.000180003988382
0.000178756400569
0.000177456493192
0.000176098846905
0.000174677407644
0.00017318534595
0.000171614877411
0.000169957036823
0.000168201402164
0.000166335773617
0.00016434583155
0.000162214829447
0.000159923424457
0.000157449801241
0.000154770277882
0.000151860548094
0.000148697563517
0.000145261811156
0.000141539562029
0.000137524834158
0.000133221377591
0.000128645385991
0.000123828934007
0.00011882212882
0.000113690522685
0.000108506352853
0.000103336968699
9.82362874601e-05
9.3243129096e-05
8.83840550541e-05
8.367755216e-05
7.9138328318e-05
7.47803879798e-05
7.06182145622e-05
6.66661310342e-05
6.293671504e-05
5.94391046602e-05
5.61775424163e-05
5.3150372223e-05
5.03498021882e-05
4.77626330654e-05
4.53717998258e-05
4.31582701908e-05
4.11027995529e-05
3.91872210565e-05
3.73951873385e-05
3.57124484193e-05
3.41268160337e-05
3.26279574949e-05
3.12071236322e-05
2.98568740162e-05
2.85708309089e-05
2.73434731816e-05
2.61699704248e-05
2.50460524978e-05
2.39679081941e-05
2.29321068624e-05
2.19355376638e-05
2.09753621883e-05
2.00489771055e-05
1.91539843471e-05
1.82881669432e-05
1.74494691344e-05
1.66359797329e-05