/*--------------------------------*- C++ -*----------------------------------*\
  =========                 |
  \\      /  F ield         | OpenFOAM: The Open Source CFD Toolbox
   \\    /   O peration     | Website:  https://openfoam.org
    \\  /    A nd           | Version:  7
     \\/     M anipulation  |
\*---------------------------------------------------------------------------*/
FoamFile
{
    version     2.0;
    format      ascii;
    class       surfaceScalarField;
    location    "2520";
    object      phi;
}
// * * * * * * * * * * * * * * * * * * * * * * * * * * * * * * * * * * * * * //

dimensions      [0 3 -1 0 0 0 0];

internalField   nonuniform List<scalar> 
16192
(
6.92933412896e-10
2.44566587104e-10
4.93584445042e-10
1.99348963312e-10
3.6484724616e-10
1.28737194432e-10
2.82250603061e-10
8.25966387502e-11
2.27599146774e-10
5.46514517883e-11
1.89950998956e-10
3.76481432001e-11
1.62965089908e-10
2.69859043688e-11
1.42929943991e-10
2.00351412254e-11
1.27612106099e-10
1.53178332184e-11
1.15619680706e-10
1.19924207603e-11
1.06052562045e-10
9.56711408335e-12
9.83073824824e-11
7.74517505107e-12
9.19660434035e-11
6.34133464035e-12
8.67301174691e-11
5.23592157704e-12
8.23810218585e-11
4.34909134095e-12
7.87550710154e-11
3.62594667118e-12
7.57273729851e-11
3.02769396468e-12
7.32011372727e-11
2.52623176607e-12
7.1100389073e-11
2.10074438356e-12
6.93648861017e-11
1.73549930162e-12
6.79464958668e-11
1.41838672491e-12
6.68065641812e-11
1.13992835487e-12
6.59139710729e-11
8.92589972496e-13
6.52436730273e-11
6.7029512792e-13
6.4775595629e-11
4.68074716942e-13
6.44937830376e-11
2.8181017385e-13
6.43857385544e-11
1.08042349976e-13
6.44419093833e-11
-5.61726456789e-14
6.46552810155e-11
-2.13373109245e-13
6.50210553708e-11
-3.65775455473e-13
6.55363941902e-11
-5.15339517084e-13
6.62002126208e-11
-6.63818683151e-13
6.70130100025e-11
-8.12797161556e-13
6.7976727036e-11
-9.63716292724e-13
6.90946192032e-11
-1.11789087711e-12
7.03711367637e-11
-1.27651566852e-12
7.18118008821e-11
-1.44066159712e-12
7.34230647656e-11
-1.61126067761e-12
7.52121468145e-11
-1.78907813543e-12
7.71868213365e-11
-1.97466984614e-12
7.93551498601e-11
-2.16832307229e-12
8.17251346686e-11
-2.36997853283e-12
8.43042743317e-11
-2.57913256673e-12
8.70990017141e-11
-2.79471942918e-12
9.01139867534e-11
-3.01497625769e-12
9.33512931324e-11
-3.23729675301e-12
9.68093882611e-11
-3.45808471981e-12
1.00482023984e-10
-3.67262454081e-12
1.04357028135e-10
-3.87499229752e-12
1.08415077218e-10
-4.05803659953e-12
1.12628551228e-10
-4.21346104139e-12
1.16960602292e-10
-4.33203768692e-12
1.21364588305e-10
-4.40397242257e-12
1.25784029442e-10
-4.41942745e-12
1.30153229421e-10
-4.36918644262e-12
1.34398668466e-10
-4.24542581832e-12
1.38441215537e-10
-4.04253445474e-12
1.42199129756e-10
-3.75790240922e-12
1.4559171731e-10
-3.39257689729e-12
1.48543389511e-10
-2.95166291637e-12
1.50987739186e-10
-2.44434213292e-12
1.52871162455e-10
-1.88341768223e-12
1.54155546311e-10
-1.28438056788e-12
1.54819665748e-10
-6.64118580591e-13
1.5485916727e-10
-3.95033235651e-14
1.54285296457e-10
5.73866387931e-13
1.5312275935e-10
1.16253002659e-12
1.5140719821e-10
1.7155516302e-12
1.49182698562e-10
2.22448784535e-12
1.46499611391e-10
2.68307342499e-12
1.43412791598e-10
3.08680431601e-12
1.39980202327e-10
3.43257244821e-12
1.36261742979e-10
3.71844140854e-12
1.32318143988e-10
3.94358030771e-12
1.28209809896e-10
4.10831488349e-12
1.23995566714e-10
4.214223785e-12
1.19731344336e-10
4.26420297521e-12
1.15468886427e-10
4.262438784e-12
1.11254607489e-10
4.21426021759e-12
1.07128713465e-10
4.12587592275e-12
1.03124666376e-10
4.0040296748e-12
9.92690248178e-11
3.85562497365e-12
9.55816386758e-11
3.68737040407e-12
9.20761370992e-11
3.50548676944e-12
8.87606241041e-11
3.3154990952e-12
8.56384923571e-11
3.12211879586e-12
8.27092733965e-11
2.92920690828e-12
7.9969461022e-11
2.7398012332e-12
7.74132635021e-11
2.55618722465e-12
7.50332601034e-11
2.37999394377e-12
7.28209517123e-11
2.21229970506e-12
7.07672072893e-11
2.05373649063e-12
6.88626139883e-11
1.90458605048e-12
6.70977433532e-11
1.76486404746e-12
6.54633465228e-11
1.63439083731e-12
6.39504919134e-11
1.51284919139e-12
6.25506569667e-11
1.3998300406e-12
6.12557846662e-11
1.29486788848e-12
6.00583131559e-11
1.19746753456e-12
5.89511857986e-11
1.10712380263e-12
5.79278469283e-11
1.02333568413e-12
5.69822278847e-11
9.4561621319e-13
5.61087262915e-11
8.73499070961e-13
5.53021812359e-11
8.06542831205e-13
5.4557845775e-11
7.44333490923e-13
5.38713581538e-11
6.86485898022e-13
5.32387121507e-11
6.32644486561e-13
5.26562270784e-11
5.82483757475e-13
5.21205171236e-11
5.35708804781e-13
5.16284598623e-11
4.92056273467e-13
5.11771629391e-11
4.51296063356e-13
5.07639279549e-11
4.13234252296e-13
5.03862095856e-11
3.77717733639e-13
5.00415676997e-11
3.44641348669e-13
4.97276087294e-11
3.13958502489e-13
4.94419115087e-11
2.85696826975e-13
4.91819300305e-11
2.59981132039e-13
4.89448624847e-11
2.37067255145e-13
4.87274697558e-11
2.17392471159e-13
4.85258176275e-11
2.01651916387e-13
4.83349006663e-11
1.90916779259e-13
4.81480796191e-11
1.86820916714e-13
4.79562205017e-11
1.9185903322e-13
4.77463642918e-11
2.09856205722e-13
4.74997230973e-11
2.46641274463e-13
4.71891302118e-11
3.10593081609e-13
4.67782421258e-11
4.10888394673e-13
5.27153434168e-13
9.53419434309e-10
2.28647148407e-10
8.59652605925e-10
2.9311578283e-10
7.45076450203e-10
2.43313341383e-10
6.41833892954e-10
1.85839187137e-10
5.5655433491e-10
1.39931000722e-10
4.88039079795e-10
1.06163389054e-10
4.33269752333e-10
8.17552225128e-11
3.89296732392e-10
6.40081518605e-11
3.5370886078e-10
5.09056955811e-11
3.24651228964e-10
4.1050043413e-11
3.00725388633e-10
3.34929453609e-11
2.80879672455e-10
2.75908823003e-11
2.64318575865e-10
2.29024224425e-11
2.50434531302e-10
1.91199575084e-11
2.38758355427e-10
1.60252587557e-11
2.28923682982e-10
1.34606108471e-11
2.20641439484e-10
1.13099294063e-11
2.13681405114e-10
9.4862583155e-12
2.07858773485e-10
7.92336845352e-12
2.03024243499e-10
6.5700220186e-12
1.99056630591e-10
5.38599268472e-12
1.95857292948e-10
4.33925940516e-12
1.93345880064e-10
3.40399665362e-12
1.91457056071e-10
2.55911335047e-12
1.90137949991e-10
1.78717549867e-12
1.89346154218e-10
1.07360116868e-12
1.89048140616e-10
4.06051740316e-13
1.89217997519e-10
-2.26033138167e-13
1.89836414186e-10
-8.31792690977e-13
1.90889856483e-10
-1.41921992792e-12
1.92369891114e-10
-1.99537552849e-12
1.94272622573e-10
-2.56655065364e-12
1.96598212094e-10
-3.13838626233e-12
1.99350451759e-10
-3.71595452684e-12
2.02536368421e-10
-4.30380503239e-12
2.06165832662e-10
-4.90597624295e-12
2.10251146764e-10
-5.52597080812e-12
2.1480658407e-10
-6.1666917864e-12
2.19847849069e-10
-6.83033557235e-12
2.25391424848e-10
-7.51823662591e-12
2.31453771248e-10
-8.2306589969e-12
2.3805033554e-10
-8.96653081773e-12
2.45194337128e-10
-9.723120608e-12
2.5289529222e-10
-1.04956594134e-11
2.6115725336e-10
-1.12769207615e-11
2.69976756844e-10
-1.20567820981e-11
2.79340497977e-10
-1.28218062998e-11
2.89222793967e-10
-1.35548996454e-11
2.99582944097e-10
-1.42351203645e-11
3.10362656741e-10
-1.48377261511e-11
3.2148377326e-10
-1.53345536726e-11
3.32846573052e-10
-1.56948130196e-11
3.44328975722e-10
-1.58863503893e-11
3.55786956931e-10
-1.58773840257e-11
3.67056450659e-10
-1.56386560351e-11
3.77956923882e-10
-1.51458758166e-11
3.88296676732e-10
-1.43822655149e-11
3.97879750527e-10
-1.33409563495e-11
4.06514115504e-10
-1.20269245491e-11
4.14020575636e-10
-1.0458108794e-11
4.20241597873e-10
-8.6653537869e-12
4.25049122521e-10
-6.69093589857e-12
4.28350424456e-10
-4.58568068984e-12
4.30091339005e-10
-2.40503618896e-12
4.30256609758e-10
-2.04782164408e-13
4.28867637882e-10
1.96282526162e-12
4.25978342642e-10
4.05180756911e-12
4.21670028451e-10
6.02384387898e-12
4.16046068928e-10
7.84842165411e-12
4.09226982501e-10
9.50213097465e-12
4.01346152828e-10
1.09676024996e-11
3.92546166994e-10
1.22325248107e-11
3.82975568806e-10
1.32890046759e-11
3.72785779919e-10
1.41333334124e-11
3.62127999423e-10
1.47660592082e-11
3.5115001525e-10
1.51921719032e-11
3.39992993316e-10
1.54211893476e-11
3.28788418808e-10
1.54669786106e-11
3.17655416044e-10
1.53472294368e-11
3.06698665984e-10
1.50825938334e-11
2.96007076635e-10
1.46955884064e-11
2.85653268624e-10
1.42094040438e-11
2.75693837895e-10
1.36467739056e-11
2.66170277902e-10
1.30290213079e-11
2.57110393188e-10
1.23753600944e-11
2.48530021826e-10
1.17024681808e-11
2.40434895188e-10
1.10243132323e-11
2.32822494398e-10
1.03521833319e-11
2.25683799278e-10
9.69486517926e-12
2.19004863722e-10
9.05891379947e-12
2.12768182632e-10
8.44896645523e-12
2.06953841122e-10
7.86806495407e-12
2.01540453181e-10
7.31796213436e-12
1.96505908373e-10
6.79939812049e-12
1.91827949945e-10
6.31233955641e-12
1.87484610129e-10
5.85618026207e-12
1.83454527144e-10
5.42990515625e-12
1.79717166872e-10
5.03222111066e-12
1.76252968826e-10
4.66165927183e-12
1.73043433522e-10
4.31665348991e-12
1.70071164926e-10
3.99559928615e-12
1.67319879436e-10
3.69689728881e-12
1.64774390029e-10
3.41898457901e-12
1.62420572628e-10
3.16035681314e-12
1.6024531957e-10
2.91958355383e-12
1.58236484077e-10
2.6953187866e-12
1.56382817981e-10
2.48630832004e-12
1.54673904311e-10
2.29139547822e-12
1.5310008505e-10
2.10952638626e-12
1.5165238386e-10
1.93975603075e-12
1.50322422351e-10
1.7812563473e-12
1.4910232791e-10
1.63332765579e-12
1.4798462971e-10
1.49541505063e-12
1.4696213864e-10
1.36713167617e-12
1.46027805086e-10
1.2482914254e-12
1.45174547053e-10
1.13895433055e-12
1.4439503869e-10
1.0394890447e-12
1.436814474e-10
9.50658174925e-13
1.43025105574e-10
8.73733992178e-13
1.42416103681e-10
8.106535842e-13
1.41842797818e-10
7.64222500002e-13
1.41291249669e-10
7.38369038566e-13
1.40744686925e-10
7.38421884831e-13
1.40183260949e-10
7.71282467859e-13
1.39584875273e-10
8.45027420272e-13
1.38929080633e-10
9.66388317429e-13
1.38209961673e-10
1.13000790076e-12
1.27947300676e-12
9.76223615057e-10
1.89923528904e-10
9.6294405619e-10
3.06395332615e-10
9.05954257328e-10
3.00303131327e-10
8.33413537603e-10
2.58379897961e-10
7.6031910617e-10
2.13025423054e-10
6.93087889392e-10
1.73394596601e-10
6.33797108795e-10
1.41045993825e-10
5.82557283715e-10
1.1524796766e-10
5.38690419434e-10
9.47725506215e-11
5.01278934269e-10
7.84615194044e-11
4.69404151774e-10
6.53677187668e-11
4.42238095429e-10
5.47569296559e-11
4.19068980345e-10
4.60715286479e-11
3.99298718265e-10
3.88902108365e-11
3.82430149043e-10
3.2893819365e-11
3.68051842185e-10
2.78389092498e-11
3.55823684411e-10
2.35380789006e-11
3.45464361136e-10
1.98455735074e-11
3.36740924033e-10
1.66467976922e-11
3.29460274422e-10
1.38506640097e-11
3.23462278589e-10
1.13839811679e-11
3.18614223246e-10
9.18730769975e-12
3.14806351304e-10
7.21186187833e-12
3.11948260823e-10
5.41719748175e-12
3.09965991193e-10
3.76943918033e-12
3.08799656165e-10
2.23993069582e-12
3.08401512179e-10
8.04190708229e-13
3.08734373334e-10
-5.58898774404e-13
3.09770300617e-10
-1.86772387636e-12
3.11489507963e-10
-3.13843053638e-12
3.13879438374e-10
-4.38530851504e-12
3.1693396807e-10
-5.62108216688e-12
3.20652701667e-10
-6.85712086754e-12
3.25040324481e-10
-8.1035774605e-12
3.30105978809e-10
-9.36945853847e-12
3.35862631027e-10
-1.06626266098e-11
3.42326394405e-10
-1.19897312542e-11
3.49515770499e-10
-1.33560637781e-11
3.57450768442e-10
-1.47653281976e-11
3.66151858847e-10
-1.62193204097e-11
3.75638716008e-10
-1.77175082075e-11
3.85928702014e-10
-1.92565074693e-11
3.97035048191e-10
-2.08294560281e-11
4.08964697756e-10
-2.2425296769e-11
4.21715787933e-10
-2.40279973222e-11
4.35274776017e-10
-2.56157551461e-11
4.49613250701e-10
-2.71602646265e-11
4.64684522813e-10
-2.8626154113e-11
4.80420153579e-10
-2.99707323637e-11
4.96726654307e-10
-3.11442070816e-11
5.13482665761e-10
-3.2090544539e-11
5.30536990731e-10
-3.2749116773e-11
5.47707887622e-10
-3.30572257624e-11
5.6478402613e-10
-3.29535009563e-11
5.81527440861e-10
-3.23820495607e-11
5.9767869871e-10
-3.1297113161e-11
6.12964318779e-10
-2.96678663129e-11
6.27106264049e-10
-2.74828839919e-11
6.39833059558e-10
-2.47537046849e-11
6.50891801064e-10
-2.15168376337e-11
6.60060029599e-10
-1.7833572989e-11
6.67156253387e-10
-1.3787154088e-11
6.72047907754e-10
-9.47733369985e-12
6.74655851859e-10
-5.01298336536e-12
6.74955072361e-10
-5.04010381213e-13
6.72971942072e-10
3.94594335823e-12
6.68778935144e-10
8.24479797833e-12
6.62487941072e-10
1.2314817592e-11
6.5424321604e-10
1.60931228798e-11
6.44214709373e-10
1.95306110172e-11
6.32592101706e-10
2.25901811881e-11
6.19579544888e-10
2.52450509312e-11
6.05390877741e-10
2.74776398573e-11
5.90245038157e-10
2.92791403504e-11
5.74361463079e-10
3.0649601357e-11
5.57955417235e-10
3.15981850417e-11
5.41233351749e-10
3.21432226608e-11
5.24388524429e-10
3.23117746792e-11
5.07597174451e-10
3.21385492834e-11
4.91015531459e-10
3.16642080753e-11
4.74777855761e-10
3.09332368225e-11
4.58995586757e-10
2.99916473832e-11
4.43757548431e-10
2.88847881846e-11
4.2913105903e-10
2.76554883408e-11
4.15163727241e-10
2.63426711338e-11
4.01885697526e-10
2.4980478767e-11
3.89312119772e-10
2.35978733828e-11
3.77445655773e-10
2.22186312196e-11
3.66278880207e-10
2.08616260142e-11
3.55796481463e-10
1.95412991409e-11
3.45977207722e-10
1.82682280064e-11
3.36795537107e-10
1.70497245361e-11
3.28223073377e-10
1.58904158784e-11
3.20229684858e-10
1.47927776462e-11
3.12784412378e-10
1.37576039342e-11
3.05856176646e-10
1.27844087358e-11
2.99414315375e-10
1.18717599216e-11
2.93428979549e-10
1.10175511438e-11
2.8787141477e-10
1.02192188882e-11
2.82714150922e-10
9.47391277229e-12
2.77931119282e-10
8.77862688591e-12
2.73497713491e-10
8.13029953564e-12
2.69390807189e-10
7.52588776979e-12
2.65588738957e-10
6.96242234254e-12
2.62071272374e-10
6.43704778572e-12
2.58819537471e-10
5.94705167036e-12
2.55815957674e-10
5.48988637746e-12
2.53044165309e-10
5.06318636899e-12
2.50488906974e-10
4.66478346432e-12
2.48135939382e-10
4.29272257306e-12
2.4597191472e-10
3.94528012283e-12
2.43984254011e-10
3.62098763462e-12
2.42161005501e-10
3.31866294868e-12
2.40490684612e-10
3.03745206875e-12
2.38962090766e-10
2.77688485463e-12
2.37564096393e-10
2.53694836967e-12
2.36285403343e-10
2.31818181285e-12
2.35114264476e-10
2.12179682437e-12
2.34038173257e-10
1.94982503536e-12
2.33043537161e-10
1.80528957019e-12
2.32115376132e-10
1.69238347915e-12
2.31237139843e-10
1.6166053816e-12
2.30390837955e-10
1.58472394457e-12
2.29557868244e-10
1.60425252561e-12
2.28721253797e-10
1.68164240761e-12
2.27870502479e-10
1.81714028265e-12
2.27009433877e-10
1.99107711142e-12
2.13102772546e-12
9.7173624003e-10
1.55687284472e-10
9.86544097897e-10
2.91587465399e-10
9.67853085428e-10
3.18994134684e-10
9.27281105167e-10
2.98951869051e-10
8.76687859525e-10
2.6361865929e-10
8.23603035487e-10
2.26479411089e-10
7.72184638038e-10
1.92464381655e-10
7.24473297178e-10
1.62959298886e-10
6.8128903829e-10
1.3795679989e-10
6.427877577e-10
1.16962790409e-10
6.08786932887e-10
9.93685340445e-11
5.78949403298e-10
8.45944497698e-11
5.52883696908e-10
7.21372256343e-11
5.30196576398e-10
6.15773220237e-11
5.1051879489e-10
5.25715916449e-11
4.93516153628e-10
4.48415413907e-11
4.78892725648e-10
3.81614978815e-11
4.66390090577e-10
3.23481997172e-11
4.55784702382e-10
2.72521771832e-11
4.46884536695e-10
2.27508211683e-11
4.39525617263e-10
1.87428922687e-11
4.33568717328e-10
1.51441995245e-11
4.28896365669e-10
1.18842056721e-11
4.2541019832e-10
8.90335723861e-12
4.23028651338e-10
6.15097887233e-12
4.21684968106e-10
3.58360697353e-12
4.2132548543e-10
1.16366679856e-12
4.21908160193e-10
-1.14157971388e-12
4.2340129655e-10
-3.36086596316e-12
4.25782439898e-10
-5.51957911945e-12
4.29037404037e-10
-7.64027734953e-12
4.3315939707e-10
-9.74307929939e-12
4.38148213893e-10
-1.18459411435e-11
4.44009463138e-10
-1.39648294481e-11
4.50753795261e-10
-1.61137926339e-11
4.58396096812e-10
-1.83049292918e-11
4.6695461317e-10
-2.05482478383e-11
4.76449959074e-10
-2.28514089264e-11
4.8690397271e-10
-2.52193400318e-11
4.98338366295e-10
-2.76537110683e-11
5.10773123861e-10
-3.01522616652e-11
5.2422459753e-10
-3.27079757773e-11
5.38703257304e-10
-3.5308109147e-11
5.54211059722e-10
-3.79330911882e-11
5.70738418613e-10
-4.05553468542e-11
5.88260790977e-10
-4.31381167743e-11
6.06734933696e-10
-4.56343952578e-11
6.26094945648e-10
-4.79861526513e-11
6.46248282669e-10
-5.01240547246e-11
6.67072017465e-10
-5.19679260542e-11
6.88409701783e-10
-5.34282120155e-11
7.10069261301e-10
-5.44086585892e-11
7.31822393217e-10
-5.48103393497e-11
7.53405925518e-10
-5.45370145531e-11
7.74525519465e-10
-5.35016247668e-11
7.94861953889e-10
-5.16335291728e-11
8.14080027612e-10
-4.88859224021e-11
8.31839869131e-10
-4.52427091311e-11
8.47810151355e-10
-4.07239723252e-11
8.61682377524e-10
-3.53890515612e-11
8.73185058165e-10
-2.93362443021e-11
8.82096335682e-10
-2.26984257081e-11
8.88253586841e-10
-1.56345828558e-11
8.9155888061e-10
-8.31827933408e-12
8.91979871262e-10
-9.25007593046e-13
8.89546552486e-10
6.3792512814e-12
8.84344982978e-10
1.34463525776e-11
8.76509371211e-10
2.01504108103e-11
8.66213761353e-10
2.6388711035e-11
8.53664171313e-10
3.20801767525e-11
8.39091547157e-10
3.71627789693e-11
8.2274548949e-10
4.15910806957e-11
8.04888469556e-10
4.53346308547e-11
7.8579020661e-10
4.83773738227e-11
7.65721978791e-10
5.0717799599e-11
7.44950821045e-10
5.23693135265e-11
7.23733754308e-10
5.33602607903e-11
7.0231233883e-10
5.37331625143e-11
6.80907912354e-10
5.35429492993e-11
6.59717850633e-10
5.28542447093e-11
6.38913083646e-10
5.17379801985e-11
6.18636952853e-10
5.02677561255e-11
5.99005342111e-10
4.8516378451e-11
5.8010789466e-10
4.65529169007e-11
5.62010056458e-10
4.44404919813e-11
5.44755665545e-10
4.2234853822e-11
5.28369825155e-10
3.99836993293e-11
5.12861842057e-10
3.7726601221e-11
4.98228064577e-10
3.54953916481e-11
4.84454508318e-10
3.33148447252e-11
4.71519203444e-10
3.12035232786e-11
4.59394234485e-10
2.91746848916e-11
4.4804746997e-10
2.72371726936e-11
4.37443997481e-10
2.53962432704e-11
4.27547290017e-10
2.3654305288e-11
4.18320135238e-10
2.20115580993e-11
4.0972536032e-10
2.04665300494e-11
4.0172638447e-10
1.90165227776e-11
3.94287628389e-10
1.76579712682e-11
3.87374806987e-10
1.63867309469e-11
3.80955127869e-10
1.51983031979e-11
3.74997414875e-10
1.40880101111e-11
3.69472172401e-10
1.30511281673e-11
3.64351603536e-10
1.2082989444e-11
3.59609592141e-10
1.11790576909e-11
3.55221656968e-10
1.03349856036e-11
3.51164883672e-10
9.54665864725e-12
3.47417839122e-10
8.8102300867e-12
3.43960470663e-10
8.12215125473e-12
3.40773991971e-10
7.47920074147e-12
3.37840755791e-10
6.87851589971e-12
3.35144113127e-10
6.31762999986e-12
3.32668257539e-10
5.79451832141e-12
3.30398052926e-10
5.30765653807e-12
3.28318843027e-10
4.85609466286e-12
3.26416241848e-10
4.43954950464e-12
3.24675906173e-10
4.05851747681e-12
3.23083295974e-10
3.71440704506e-12
3.21623436654e-10
3.40968440528e-12
3.20280712072e-10
3.14801424215e-12
3.19038742342e-10
2.93435335103e-12
3.17880441973e-10
2.77490597677e-12
3.16788417482e-10
2.67674878034e-12
3.15745948858e-10
2.64672165457e-12
3.1473886592e-10
2.68872599348e-12
3.13758387367e-10
2.79761952722e-12
3.12803189168e-10
2.94627590731e-12
3.06299571449e-12
9.6390384454e-10
1.29283435117e-10
9.8753843832e-10
2.67952861724e-10
9.89431254408e-10
3.17101308925e-10
9.71670782517e-10
3.16712331307e-10
9.41205533344e-10
2.94083898617e-10
9.04084171968e-10
2.63600762475e-10
8.64503790061e-10
2.32044753499e-10
8.25113728953e-10
2.02349349902e-10
7.87472027694e-10
1.75598491056e-10
7.52418982641e-10
1.52015825386e-10
7.20341754704e-10
1.31445751932e-10
6.91351208651e-10
1.13584985808e-10
6.65396491549e-10
9.80919327648e-11
6.42337727523e-10
8.46360761315e-11
6.21991298732e-10
7.29180105797e-11
6.04157481877e-10
6.26753484639e-11
5.88636865601e-10
5.36821044601e-11
5.75239710666e-10
4.57453450552e-11
5.63790921977e-10
3.87009563892e-11
5.54132331881e-10
3.24094019128e-11
5.46123369954e-10
2.6751844992e-11
5.39640795138e-10
2.16267653038e-11
5.34577911432e-10
1.69470805299e-11
5.30843526463e-10
1.26377335713e-11
5.2836080948e-10
8.63368745431e-12
5.27066140165e-10
4.87826815301e-12
5.2690799828e-10
1.32180083931e-12
5.27845918183e-10
-2.07950713311e-12
5.29849511726e-10
-5.36446665997e-12
5.32897561518e-10
-8.56763566245e-12
5.36977171639e-10
-1.17198937757e-11
5.42082957623e-10
-1.48488710919e-11
5.48216255391e-10
-1.79792441758e-11
5.55384324887e-10
-2.11329036013e-11
5.63599520353e-10
-2.43289920933e-11
5.72878395583e-10
-2.75838077794e-11
5.83240708387e-10
-3.0910563099e-11
5.94708284646e-10
-3.4318986761e-11
6.07303698245e-10
-3.78147542526e-11
6.21048720049e-10
-4.13987324565e-11
6.35962486916e-10
-4.50660270087e-11
6.52059342363e-10
-4.88048285097e-11
6.69346304653e-10
-5.25950674715e-11
6.87820128693e-10
-5.6406909944e-11
7.07463946762e-10
-6.01991582832e-11
7.28243503806e-10
-6.3917665779e-11
7.50103047661e-10
-6.74939296751e-11
7.72960996666e-10
-7.08440908182e-11
7.96705585594e-10
-7.38686314633e-11
8.21190783681e-10
-7.64531106541e-11
8.46232874852e-10
-7.84702885183e-11
8.71608175213e-10
-7.9783943229e-11
8.97052412233e-10
-8.02545598027e-11
9.22262281656e-10
-7.97468667902e-11
9.4689961369e-10
-7.81389393233e-11
9.70598420684e-10
-7.53323187467e-11
9.92974877619e-10
-7.12623624325e-11
1.01364002438e-09
-6.5907839978e-11
1.03221467224e-09
-5.92986058304e-11
1.04834563008e-09
-5.15199971622e-11
1.06172194323e-09
-4.27125479534e-11
1.07208946604e-09
-3.30659422968e-11
1.07926198304e-09
-2.28070974397e-11
1.08312747174e-09
-1.21837697332e-11
1.08364897142e-09
-1.44651329797e-12
1.08086060263e-09
9.1676098121e-12
1.07486013761e-09
1.94468033623e-11
1.0657998295e-09
2.9210701163e-11
1.05387697874e-09
3.83115410042e-11
1.03932518743e-09
4.6631944827e-11
1.02240664438e-09
5.40812968745e-11
1.00340530044e-09
6.0592398099e-11
9.82620537341e-10
6.61193665228e-11
9.60360912878e-10
7.06369704428e-11
9.36937715421e-10
7.41409692183e-11
9.12658291683e-10
7.66487098415e-11
8.87819343009e-10
7.81991827815e-11
8.62700559467e-10
7.88519204061e-11
8.37559036225e-10
7.8684448131e-11
8.12624880217e-10
7.77883777162e-11
7.88098282248e-10
7.62645566671e-11
7.64148146225e-10
7.42178722139e-11
7.40912184597e-10
7.1752321716e-11
7.18498250509e-10
6.89668341858e-11
6.9698660029e-10
6.59521269047e-11
6.7643276372e-10
6.27886765457e-11
6.56870727307e-10
5.95457232581e-11
6.38316189457e-10
5.62811278689e-11
6.20769708082e-10
5.30418630001e-11
6.04219620611e-10
4.98649232658e-11
5.88644666132e-10
4.67784698199e-11
5.74016278569e-10
4.38030654253e-11
5.60300547444e-10
4.09528976081e-11
5.47459861559e-10
3.82369236882e-11
5.35454261849e-10
3.56599001999e-11
5.24242535449e-10
3.32232803064e-11
5.13783084672e-10
3.09259771747e-11
5.04034603976e-10
2.87650003141e-11
4.9495659559e-10
2.6735976932e-11
4.86509751539e-10
2.48335726721e-11
4.78656226191e-10
2.30518265737e-11
4.71359820152e-10
2.13844144955e-11
4.64586092913e-10
1.98248540329e-11
4.58302418725e-10
1.83666625118e-11
4.5247799738e-10
1.70034781365e-11
4.47083829297e-10
1.57291529841e-11
4.42092662123e-10
1.45378252862e-11
4.37478914404e-10
1.34239774201e-11
4.33218580217e-10
1.23824851808e-11
4.29289117522e-10
1.14086632827e-11
4.25669321804e-10
1.04983115509e-11
4.22339185882e-10
9.64776592879e-12
4.19279746147e-10
8.85395811828e-12
4.16472915453e-10
8.11448733874e-12
4.13901303181e-10
7.42770707195e-12
4.11548024327e-10
6.79282852171e-12
4.09396501792e-10
6.21004018728e-12
4.07430270496e-10
5.68063853213e-12
4.05632798807e-10
5.20715629691e-12
4.03987353929e-10
4.79345934783e-12
4.02476953811e-10
4.44475373349e-12
4.01084470009e-10
4.16739011484e-12
3.99792969241e-10
3.96824999131e-12
3.98586387582e-10
3.85330390955e-12
3.97450541179e-10
3.82457313411e-12
3.96374017123e-10
3.87414432218e-12
3.95346817906e-10
3.97347572581e-12
4.05834007032e-12
9.57498559211e-10
1.09284870915e-10
9.8236229474e-10
2.43089115958e-10
9.94643767289e-10
3.04819826419e-10
9.9160846483e-10
3.19747623764e-10
9.76410844364e-10
3.09281508847e-10
9.53159718707e-10
2.86851877748e-10
9.25312590284e-10
2.59891871468e-10
8.95407259128e-10
2.32254670574e-10
8.65185062782e-10
2.05820676911e-10
8.35783935194e-10
1.81416942485e-10
8.07910492021e-10
1.59319184626e-10
7.81973097562e-10
1.39522369806e-10
7.58178970159e-10
1.21886049726e-10
7.36602986352e-10
1.06212049524e-10
7.17235562326e-10
9.22854242263e-11
7.00015535229e-10
7.98953652256e-11
6.84852476524e-10
6.88451528827e-11
6.71641643404e-10
5.89561679593e-11
6.60273843921e-10
5.00687457321e-11
6.50641812511e-10
4.20414232747e-11
6.42644207484e-10
3.4749440075e-11
6.36188000071e-10
2.8082962894e-11
6.31189785262e-10
2.19452856543e-11
6.27576378123e-10
1.62511311851e-11
6.2528494356e-10
1.09251126716e-11
6.24262827229e-10
5.90037534167e-12
6.24467199306e-10
1.11741984974e-12
6.25864583963e-10
-3.47690044162e-12
6.28430315662e-10
-7.93020671915e-12
6.32147958021e-10
-1.22852860497e-11
6.37008690891e-10
-1.65806343039e-11
6.43010666253e-10
-2.08508536911e-11
6.5015832614e-10
-2.51269108315e-11
6.58461668556e-10
-2.94362522539e-11
6.67935441092e-10
-3.38027702758e-11
6.78598236486e-10
-3.82466081529e-11
6.90471458913e-10
-4.27837897667e-11
7.03578124905e-10
-4.7425656166e-11
7.17941457955e-10
-5.21780898074e-11
7.33583232066e-10
-5.70405080648e-11
7.5052181669e-10
-6.20046120365e-11
7.68769875385e-10
-6.70528864147e-11
7.88331673713e-10
-7.21568637348e-11
8.09199961263e-10
-7.72751940629e-11
8.31352409962e-10
-8.23516021244e-11
8.54747620261e-10
-8.73128697293e-11
8.79320750975e-10
-9.20670525199e-11
9.04978891947e-10
-9.65022223794e-11
9.31596381941e-10
-1.00486110526e-10
9.59010376053e-10
-1.03867092351e-10
9.87017077683e-10
-1.06476976338e-10
1.01536915268e-09
-1.08136003141e-10
1.04377490976e-09
-1.08660300698e-10
1.07189983208e-09
-1.07871772074e-10
1.09937095733e-09
-1.0561004698e-10
1.12578442805e-09
-1.01745771706e-10
1.15071629567e-09
-9.61942125904e-11
1.17373638956e-09
-8.89279172358e-11
1.19442475261e-09
-7.99869536774e-11
1.21238974657e-09
-6.94849779865e-11
1.22728640842e-09
-5.76091993978e-11
1.23883310041e-09
-4.461262726e-11
1.24682424891e-09
-3.0798242854e-11
1.25113736489e-09
-1.64968870007e-11
1.2517336499e-09
-2.04280414303e-12
1.24865291422e-09
1.22483351896e-11
1.24200463321e-09
2.60950699174e-11
1.23195729426e-09
3.92580220308e-11
1.2187278138e-09
5.15410003746e-11
1.20257207259e-09
6.27876625506e-11
1.18377684028e-09
7.2876503891e-11
1.16265277921e-09
8.17164326237e-11
1.13952794556e-09
8.92441728607e-11
1.11474123264e-09
9.5423655779e-11
1.08863542531e-09
1.00246749124e-10
1.06154983713e-09
1.03734271159e-10
1.0338127881e-09
1.05936205838e-10
1.00573439003e-09
1.0693029367e-10
9.77600192716e-10
1.06818622008e-10
9.49666190287e-10
1.05722358236e-10
9.2215551473e-10
1.03775211919e-10
8.95256912668e-10
1.01116455623e-10
8.69124880056e-10
9.78843373149e-11
8.43881170026e-10
9.42105288184e-11
8.19617309893e-10
9.02159731859e-11
7.96397757202e-10
8.60082168594e-11
7.742633676e-10
8.16801018536e-11
7.53234915343e-10
7.73095703976e-11
7.33316479764e-10
7.29602900139e-11
7.14498577059e-10
6.86828184703e-11
6.96760969831e-10
6.45160705006e-11
6.80075126878e-10
6.04889026933e-11
6.64406333157e-10
5.66216864085e-11
6.49715467837e-10
5.2927784776e-11
6.35960478483e-10
4.94148859257e-11
6.23097584596e-10
4.60861711086e-11
6.11082244893e-10
4.29413142687e-11
5.99869921961e-10
3.99773210647e-11
5.89416675379e-10
3.71892217053e-11
5.79679611507e-10
3.45706350708e-11
5.70617214599e-10
3.21142222992e-11
5.62189580687e-10
2.98120474861e-11
5.54358572305e-10
2.7655861719e-11
5.47087909306e-10
2.56373250145e-11
5.40343208242e-10
2.37481788756e-11
5.3409198052e-10
2.19803805312e-11
5.28303597429e-10
2.03262083274e-11
5.22949228436e-10
1.87783464721e-11
5.1800175758e-10
1.73299561812e-11
5.13435681646e-10
1.59747394334e-11
5.09226992694e-10
1.47070007743e-11
5.0535304689e-10
1.35217120472e-11
5.01792421049e-10
1.24145843021e-11
4.98524758278e-10
1.13821504709e-11
4.95530604422e-10
1.04218612968e-11
4.92791238049e-10
9.53219526623e-12
4.90288498498e-10
8.71278010471e-12
4.88004619517e-10
7.96451787308e-12
4.85922080338e-10
7.2896958297e-12
4.84023492063e-10
6.69204798154e-12
4.82291544322e-10
6.17670185258e-12
4.80709043117e-10
5.74989174617e-12
4.7925906691e-10
5.41822670687e-12
4.77925228242e-10
5.18714320837e-12
4.76691875232e-10
5.05792689506e-12
4.75543599296e-10
5.02242100295e-12
4.74462347859e-10
5.05472776057e-12
5.10130146745e-12
9.52868769395e-10
9.39160962418e-11
9.76265392904e-10
2.19692481867e-10
9.9335083474e-10
2.8773437427e-10
9.99424090521e-10
3.13674357711e-10
9.95122912599e-10
3.13582676289e-10
9.82863151351e-10
2.99111628383e-10
9.65191029374e-10
2.77563982768e-10
9.4424131311e-10
2.53204376135e-10
9.21645854981e-10
2.2841612433e-10
8.98590813572e-10
2.04471973182e-10
8.75907653568e-10
1.82002333923e-10
8.54159346286e-10
1.61270666386e-10
8.33711409749e-10
1.42333975572e-10
8.14787148212e-10
1.25136300384e-10
7.97509357688e-10
1.09563204093e-10
7.81931270487e-10
9.54734417975e-11
7.68059242687e-10
8.27171700899e-11
7.55869228941e-10
7.11461711579e-11
7.45318639346e-10
6.06193248373e-11
7.36354792469e-10
5.10052597299e-11
7.28920875458e-10
4.21833467456e-11
7.22960088092e-10
3.40437400159e-11
7.18418470157e-10
2.64868934559e-11
7.15246778455e-10
1.94228128818e-11
7.1340168059e-10
1.27702006799e-11
7.12846459167e-10
6.45558707885e-12
7.13551365452e-10
4.12504073202e-13
7.15493719305e-10
-5.41926356355e-12
7.18657822167e-10
-1.10943185956e-11
7.23034739412e-10
-1.66622120185e-11
7.2862197007e-10
-2.21678733545e-11
7.35423020803e-10
-2.76519124387e-11
7.43446888482e-10
-3.31507860955e-11
7.52707446659e-10
-3.86968175267e-11
7.63222723374e-10
-4.43180535312e-11
7.75014050846e-10
-5.00379415359e-11
7.88105061143e-10
-5.58748052636e-11
8.02520495978e-10
-6.18410954004e-11
8.18284793161e-10
-6.7942390495e-11
8.35420407384e-10
-7.41761247953e-11
8.53945819146e-10
-8.05300252041e-11
8.73873183866e-10
-8.69802513341e-11
8.95205574548e-10
-9.34892533062e-11
9.17933777981e-10
-1.0000339498e-10
9.42032618894e-10
-1.06450439029e-10
9.67456812595e-10
-1.12737057859e-10
9.94136388785e-10
-1.18746621524e-10