/*--------------------------------*- C++ -*----------------------------------*\
  =========                 |
  \\      /  F ield         | OpenFOAM: The Open Source CFD Toolbox
   \\    /   O peration     | Website:  https://openfoam.org
    \\  /    A nd           | Version:  7
     \\/     M anipulation  |
\*---------------------------------------------------------------------------*/
FoamFile
{
    version     2.0;
    format      ascii;
    class       volVectorField;
    location    "2520";
    object      U;
}
// * * * * * * * * * * * * * * * * * * * * * * * * * * * * * * * * * * * * * //

dimensions      [0 1 -1 0 0 0 0];

internalField   nonuniform List<vector> 
8192
(
(0.00104347738425 0.000156522615746 0)
(0.000759371429081 0.00012758333652 0)
(0.000549396282369 8.23918044368e-05 0)
(0.000414142623501 5.28618488002e-05 0)
(0.000326303839895 3.49769291445e-05 0)
(0.000267232093267 2.40948116481e-05 0)
(0.000225866296873 1.7270978796e-05 0)
(0.000195772821695 1.28224903843e-05 0)
(0.000173146912057 9.80341325975e-06 0)
(0.000155668343555 7.67514928661e-06 0)
(0.00014187023536 6.12295301335e-06 0)
(0.000130790364498 4.95691203268e-06 0)
(0.000121774992567 4.05845416982e-06 0)
(0.000114365542958 3.3509898093e-06 0)
(0.00010823112917 2.78341845821e-06 0)
(0.000103127099439 2.32060586956e-06 0)
(9.88687641603e-05 1.93772413739e-06 0)
(9.5314246565e-05 1.61678833029e-06 0)
(9.23529768612e-05 1.34447640548e-06 0)
(8.98977761118e-05 1.11071955304e-06 0)
(8.78792844598e-05 9.07767503943e-07 0)
(8.62419584307e-05 7.29554147118e-07 0)
(8.49411425626e-05 5.71257582397e-07 0)
(8.39408922241e-05 4.28988881869e-07 0)
(8.321233194e-05 2.99567818843e-07 0)
(8.27324023466e-05 1.80358511264e-07 0)
(8.24828938188e-05 6.91471039845e-08 0)
(8.24496946801e-05 -3.59504932345e-08 0)
(8.26222018552e-05 -1.36558789917e-07 0)
(8.29928552872e-05 -2.34096291503e-07 0)
(8.3556767719e-05 -3.29817290934e-07 0)
(8.4311428359e-05 -4.24843957217e-07 0)
(8.52564624789e-05 -5.20190183396e-07 0)
(8.63934317046e-05 -6.16778427343e-07 0)
(8.77256615931e-05 -7.15450161351e-07 0)
(8.92580838189e-05 -8.1697002785e-07 0)
(9.09970800933e-05 -9.22023422157e-07 0)
(9.29503140145e-05 -1.03120683367e-06 0)
(9.51265354113e-05 -1.14501000668e-06 0)
(9.75353396167e-05 -1.26378870153e-06 0)
(0.000100186861566 -1.38772676627e-06 0)
(0.000103091382098 -1.51678626101e-06 0)
(0.00010625882176 -1.65064484271e-06 0)
(0.000109698096669 -1.78862043467e-06 0)
(0.000113416312619 -1.92958480492e-06 0)
(0.000117417779127 -2.07186992193e-06 0)
(0.000121702836092 -2.21317422068e-06 0)
(0.000126266503837 -2.35047970612e-06 0)
(0.000131096993356 -2.47999507041e-06 0)
(0.000136174147426 -2.5971434237e-06 0)
(0.000141467922205 -2.69661506649e-06 0)
(0.000146937058253 -2.77250411963e-06 0)
(0.000152528121982 -2.81854235045e-06 0)
(0.000158175115358 -2.828433568e-06 0)
(0.000163799845672 -2.79627932328e-06 0)
(0.000169313214647 -2.71707252373e-06 0)
(0.000174617525762 -2.58722205103e-06 0)
(0.000179609820987 -2.4050575419e-06 0)
(0.000184186142122 -2.17124921426e-06 0)
(0.000188246468365 -1.88906426648e-06 0)
(0.000191699922366 -1.56437896507e-06 0)
(0.00019446969705 -1.20538731663e-06 0)
(0.00019649709361 -8.22003563442e-07 0)
(0.000197744135718 -4.25035891578e-07 0)
(0.000198194453132 -2.52821270817e-08 0)
(0.000197852456785 3.67274488276e-07 0)
(0.000196741155716 7.44019217016e-07 0)
(0.000194899172838 1.09795304333e-06 0)
(0.000192377533934 1.42367222102e-06 0)
(0.00018923667837 1.71716699199e-06 0)
(0.000185543937913 1.97555476225e-06 0)
(0.000181371516112 2.19684636686e-06 0)
(0.000176794844995 2.37980250147e-06 0)
(0.000171891127659 2.52389139693e-06 0)
(0.000166737890486 2.62932152543e-06 0)
(0.00016141144103 2.6971032224e-06 0)
(0.000155985223072 2.72908990414e-06 0)
(0.000150528147688 2.72796082176e-06 0)
(0.000145103036106 2.69712653926e-06 0)
(0.000139765325411 2.64056059056e-06 0)
(0.000134562163098 2.56257899187e-06 0)
(0.000129531962364 2.46759998314e-06 0)
(0.000124704424636 2.3599170586e-06 0)
(0.000120100976496 2.24351153244e-06 0)
(0.00011573552717 2.12191942093e-06 0)
(0.000111615434535 1.99815602935e-06 0)
(0.000107742570082 1.8746924213e-06 0)
(0.000104114390028 1.75347278925e-06 0)
(0.000100724943695 1.63595982378e-06 0)
(9.75657751075e-05 1.52319612402e-06 0)
(9.4626695562e-05 1.41587181124e-06 0)
(9.1896421761e-05 1.314391354e-06 0)
(8.93630856176e-05 1.21893507231e-06 0)
(8.70146286986e-05 1.12951299037e-06 0)
(8.48390975206e-05 1.04601013588e-06 0)
(8.28248565991e-05 9.68223482487e-07 0)
(8.09607352832e-05 8.95891225981e-07 0)
(7.9236122645e-05 8.28715448627e-07 0)
(7.76410226061e-05 7.66379222119e-07 0)
(7.61660793309e-05 7.08559233685e-07 0)
(7.48025809452e-05 6.54934837844e-07 0)
(7.35424478803e-05 6.05194376442e-07 0)
(7.23782106728e-05 5.59039405415e-07 0)
(7.13029808175e-05 5.16187411971e-07 0)
(7.0310417287e-05 4.76373434191e-07 0)
(6.93946905144e-05 4.39350974734e-07 0)
(6.85504449949e-05 4.04892471399e-07 0)
(6.77727611067e-05 3.72789604784e-07 0)
(6.70571162893e-05 3.4285363506e-07 0)
(6.6399345271e-05 3.14916015019e-07 0)
(6.57955985929e-05 2.88829480548e-07 0)
(6.52422981722e-05 2.6446992147e-07 0)
(6.47360880259e-05 2.41739349529e-07 0)
(6.42737774626e-05 2.20570463148e-07 0)
(6.38522729147e-05 2.00933441593e-07 0)
(6.34684929524e-05 1.82845969264e-07 0)
(6.31192585851e-05 1.66387924505e-07 0)
(6.28011472097e-05 1.51723043293e-07 0)
(6.25102926339e-05 1.39131181542e-07 0)
(6.22421039254e-05 1.29057226488e-07 0)
(6.1990859708e-05 1.22186738725e-07 0)
(6.17491073826e-05 1.19565386697e-07 0)
(6.15067520773e-05 1.22789781261e-07 0)
(6.12496542678e-05 1.34307971662e-07 0)
(6.0957495929e-05 1.57850415656e-07 0)
(6.06008661178e-05 1.9877957223e-07 0)
(6.01391182961e-05 2.62968572591e-07 0)
(5.9538771931e-05 3.37378197867e-07 0)
(0.00121018843796 0.000302856790727 0)
(0.00116036610575 0.000315177437531 0)
(0.00102702659592 0.000238112342922 0)
(0.00088762261962 0.000171798928568 0)
(0.000766968465833 0.000124532769606 0)
(0.000668539785411 9.20393806429e-05 0)
(0.000589637652562 6.95943212042e-05 0)
(0.000526442550225 5.3787707575e-05 0)
(0.00047552357963 4.23830584316e-05 0)
(0.000434150457436 3.3947177071e-05 0)
(0.000400241035262 2.75584380443e-05 0)
(0.000372227239096 2.26150767049e-05 0)
(0.000348926878925 1.8716004533e-05 0)
(0.000329441988587 1.55877626147e-05 0)
(0.000313083447506 1.30395840619e-05 0)
(0.000299316504582 1.09353968117e-05 0)
(0.000287721678378 9.17607895742e-06 0)
(0.000277966620543 7.68799365221e-06 0)
(0.000269785714303 6.41543221573e-06 0)
(0.00026296513087 5.31553364494e-06 0)
(0.000257331759418 4.35480282216e-06 0)
(0.000252744911065 3.50668016642e-06 0)
(0.000249090030728 2.74981544072e-06 0)
(0.000246273879127 2.06682142617e-06 0)
(0.00024422080388 1.44336013799e-06 0)
(0.000242869826694 8.67463259218e-07 0)
(0.000242172348694 3.29020217787e-07 0)
(0.000242090328407 -1.80611701661e-07 0)
(0.000242594823492 -6.68906112142e-07 0)
(0.000243664813228 -1.14239704537e-06 0)
(0.000245286238462 -1.60685762917e-06 0)
(0.00024745120876 -2.06743637555e-06 0)
(0.000250157334187 -2.52875739129e-06 0)
(0.000253407144866 -2.99498932452e-06 0)
(0.000257207564915 -3.46988538208e-06 0)
(0.000261569408693 -3.95679482334e-06 0)
(0.000266506866832 -4.45864473936e-06 0)
(0.000272036947734 -4.97788957697e-06 0)
(0.000278178837209 -5.51642477298e-06 0)
(0.000284953135307 -6.07546014211e-06 0)
(0.000292380925501 -6.65534852428e-06 0)
(0.000300482628344 -7.25536598436e-06 0)
(0.000309276590507 -7.87344203183e-06 0)
(0.000318777362783 -8.50584245923e-06 0)
(0.000328993629171 -9.14681409231e-06 0)
(0.00033992576653 -9.78821046474e-06 0)
(0.000351563043085 -1.04191302525e-05 0)
(0.000363880506844 -1.10256154791e-05 0)
(0.000376835672361 -1.15904721037e-05 0)
(0.000390365184536 -1.20932881604e-05 0)
(0.000404381715201 -1.25107294169e-05 0)
(0.00041877142164 -1.28171844522e-05 0)
(0.000433392351215 -1.29858065996e-05 0)
(0.000448074196898 -1.29899593445e-05 0)
(0.000462619780857 -1.28050191858e-05 0)
(0.000476808559706 -1.24104330464e-05 0)
(0.000490402304393 -1.17918719805e-05 0)
(0.000503152913446 -1.09432696056e-05 0)
(0.00051481207426 -9.86848092569e-06 0)
(0.000525142202329 -8.58225389463e-06 0)
(0.000533927791046 -7.11020538868e-06 0)
(0.000540986061052 -5.48758629171e-06 0)
(0.000546175710065 -3.75683920494e-06 0)
(0.000549402728615 -1.96425905251e-06 0)
(0.000550622687208 -1.56342712303e-07 0)
(0.000549839518489 1.62348265571e-06 0)
(0.000547101427535 3.33717606124e-06 0)
(0.0005424949575 4.95321312587e-06 0)
(0.000536138302323 6.44666207966e-06 0)
(0.000528174752914 7.79853081577e-06 0)
(0.00051876680661 8.994820362e-06 0)
(0.000508091084686 1.00256622457e-05 0)
(0.000496333910912 1.0884765494e-05 0)
(0.000483687263184 1.15692247809e-05 0)
(0.000470344818779 1.20795994187e-05 0)
(0.000456497929391 1.24200932404e-05 0)
(0.000442331525482 1.25986510866e-05 0)
(0.000428020103759 1.26268271326e-05 0)
(0.000413724054305 1.25193533788e-05 0)
(0.000399586612498 1.2293420644e-05 0)
(0.000385731675276 1.1967755572e-05 0)
(0.000372262620966 1.15616185711e-05 0)
(0.000359262148172 1.10938523582e-05 0)
(0.00034679303411 1.05820851695e-05 0)
(0.000334899629497 1.00421498814e-05 0)
(0.000323609865609 9.48773566508e-06 0)
(0.000312937546889 8.93025288998e-06 0)
(0.000302884729335 8.37887012167e-06 0)
(0.000293444027952 7.8406735385e-06 0)
(0.00028460074432 7.32090095567e-06 0)
(0.000276334749667 6.82321034258e-06 0)
(0.000268622095203 6.3499529246e-06 0)
(0.000261436348354 5.9024308383e-06 0)
(0.000254749671395 5.48112778749e-06 0)
(0.000248533669324 5.08590745198e-06 0)
(0.000242760038447 4.71617885021e-06 0)
(0.000237401047854 4.37103052598e-06 0)
(0.00023242988417 4.04933695945e-06 0)
(0.000227820886846 3.74984115609e-06 0)
(0.000223549697503 3.47121746723e-06 0)
(0.000219593343007 3.21211838098e-06 0)
(0.000215930268392 2.97120864128e-06 0)
(0.000212540332458 2.74718953598e-06 0)
(0.000209404776101 2.53881577238e-06 0)
(0.000206506171007 2.34490690864e-06 0)
(0.000203828354334 2.16435499816e-06 0)
(0.000201356353317 1.99612979622e-06 0)
(0.000199076302267 1.83928271085e-06 0)
(0.000196975353191 1.69295052227e-06 0)
(0.000195041580103 1.5563598747e-06 0)
(0.000193263875975 1.42883354282e-06 0)
(0.000191631840167 1.30979962118e-06 0)
(0.000190135652877 1.19880498193e-06 0)
(0.000188765931744 1.09553473589e-06 0)
(0.000187513563985 9.99839953848e-07 0)
(0.000186369505368 9.11776740814e-07 0)
(0.000185324534875 8.31660913114e-07 0)
(0.000184368951097 7.60144275245e-07 0)
(0.000183492193903 6.98320936535e-07 0)
(0.000182682373924 6.47875520376e-07 0)
(0.00018192569696 6.11289138726e-07 0)
(0.000181205790392 5.92121571379e-07 0)
(0.00018050299942 5.95379787553e-07 0)
(0.000179793886639 6.27928751092e-07 0)
(0.000179051607182 6.9866796463e-07 0)
(0.000178248931779 8.17268095384e-07 0)
(0.000177368987076 9.86173629076e-07 0)
(0.000176427266653 1.1562409222e-06 0)
(0.00122478311364 0.00026788523348 0)
(0.0012410673096 0.000383687113885 0)
(0.00119609492065 0.000347914542535 0)
(0.00111319538876 0.000284300214463 0)
(0.00101998889201 0.000225892111216 0)
(0.000930180477159 0.000178917110819 0)
(0.000849206398839 0.000142592778456 0)
(0.000778466811206 0.000114723916493 0)
(0.000717598530015 9.32340775697e-05 0)
(0.00066558038637 7.64874002032e-05 0)
(0.000621237175068 6.32708250417e-05 0)
(0.00058345103821 5.2702599652e-05 0)
(0.000551236528495 4.41433286979e-05 0)
(0.00052375532711 3.71265077407e-05 0)
(0.000500306475076 3.13082099973e-05 0)
(0.000480308474386 2.6431692862e-05 0)
(0.000463280337021 2.23027253164e-05 0)
(0.00044882434915 1.87723723667e-05 0)
(0.000436611382508 1.57249063333e-05 0)
(0.000426368767011 1.30692390581e-05 0)
(0.000417870433927 1.07327832657e-05 0)
(0.000410928961174 8.65700294714e-06 0)
(0.000405389167712 6.79414946045e-06 0)
(0.000401122951761 5.10483893262e-06 0)
(0.000398025121291 3.55623339456e-06 0)
(0.000396010014309 2.12066039328e-06 0)
(0.00039500874774 7.74555167069e-07 0)
(0.000394966966728 -5.02356424046e-07 0)
(0.000395842991329 -1.72769060309e-06 0)
(0.000397606277491 -2.91689629715e-06 0)
(0.000400236125656 -4.08363778786e-06 0)
(0.000403720580125 -5.24008500513e-06 0)
(0.000408055468632 -6.39712456312e-06 0)
(0.000413243536735 -7.5645004719e-06 0)
(0.000419293634106 -8.75088868535e-06 0)
(0.000426219910295 -9.96390582574e-06 0)
(0.000434040976276 -1.12100493199e-05 0)
(0.000442778985538 -1.24945635613e-05 0)
(0.000452458584922 -1.38212248127e-05 0)
(0.000463105681465 -1.51920365028e-05 0)
(0.000474745967907 -1.66068270108e-05 0)
(0.000487403147534 -1.80627445037e-05 0)
(0.000501096800132 -1.95536490471e-05 0)
(0.000515839837406 -2.10694119567e-05 0)
(0.00053163551084 -2.25951475736e-05 0)
(0.000548473960928 -2.41104238363e-05 0)
(0.0005663283371 -2.55885253928e-05 0)
(0.000585150575049 -2.69958744054e-05 0)
(0.000604866992891 -2.82917457461e-05 0)
(0.000625373957047 -2.94284372689e-05 0)
(0.000646533964843 -3.03520628554e-05 0)
(0.000668172580155 -3.10041150673e-05 0)
(0.000690076722146 -3.13238887371e-05 0)
(0.000711994824801 -3.12517663885e-05 0)
(0.000733639338874 -3.07332515813e-05 0)
(0.000754691929325 -2.97235129457e-05 0)
(0.000774811531193 -2.81920843697e-05 0)
(0.00079364517301 -2.61272578185e-05 0)
(0.000810841167109 -2.35396027098e-05 0)
(0.000826063910798 -2.04639657137e-05 0)
(0.000839009171625 -1.69593131366e-05 0)
(0.000849418421111 -1.31059775914e-05 0)
(0.000857090663131 -9.0003292094e-06 0)
(0.000861890406152 -4.74753251477e-06 0)
(0.0008637509915 -4.53627229197e-07 0)
(0.000862673289237 3.78161191671e-06 0)
(0.000858720561419 7.86982755036e-06 0)
(0.000852010800779 1.17367433415e-05 0)
(0.000842707940552 1.53225885017e-05 0)
(0.000831013072264 1.85809548748e-05 0)
(0.00081715635909 2.14769815602e-05 0)
(0.00080138985382 2.39856484748e-05 0)
(0.000783981070482 2.60906525012e-05 0)
(0.000765206986174 2.77839832082e-05 0)
(0.000745348160791 2.90660227617e-05 0)
(0.000724682803401 2.99458284447e-05 0)
(0.00070348081215 3.04412236853e-05 0)
(0.000681998000754 3.05784021055e-05 0)
(0.000660470847283 3.03908983809e-05 0)
(0.000639112131782 2.99179532216e-05 0)
(0.000618107767821 2.92024481465e-05 0)
(0.000597615003212 2.82886729133e-05 0)
(0.000577762006521 2.72201997377e-05 0)
(0.000558648708775 2.60380861752e-05 0)
(0.000540348663213 2.47795399861e-05 0)
(0.000522911631851 2.34770860466e-05 0)
(0.000506366603071 2.21581994337e-05 0)
(0.000490724976349 2.08453213129e-05 0)
(0.000475983703027 1.95561543638e-05 0)
(0.000462128231468 1.83041362818e-05 0)
(0.000449135161078 1.70990044554e-05 0)
(0.000436974556691 1.59473852737e-05 0)
(0.00042561191071 1.48533619282e-05 0)
(0.000415009765271 1.38189924907e-05 0)
(0.000405129022231 1.2844763834e-05 0)
(0.000395929976976 1.19299769586e-05 0)
(0.000387373114894 1.10730656498e-05 0)
(0.000379419708751 1.02718542428e-05 0)
(0.000372032252364 9.52376202244e-06 0)
(0.000365174762043 8.82596240781e-06 0)
(0.00035881297293 8.17550475012e-06 0)
(0.000352914452975 7.56940596765e-06 0)
(0.000347448653235 7.00471830323e-06 0)
(0.000342386909534 6.47857865963e-06 0)
(0.000337702407252 5.98824405732e-06 0)
(0.000333370118301 5.53111709246e-06 0)
(0.000329366716893 5.1047646064e-06 0)
(0.000325670478709 4.70693238222e-06 0)
(0.000322261166261 4.33555830438e-06 0)
(0.000319119901668 3.98878630644e-06 0)
(0.000316229026625 3.66498334088e-06 0)
(0.000313571947988 3.36276178586e-06 0)
(0.000311132966088 3.08100991956e-06 0)
(0.000308897081672 2.81893359674e-06 0)
(0.000306849776242 2.57611281922e-06 0)
(0.000304976759781 2.35257772814e-06 0)
(0.000303263679831 2.14890934883e-06 0)
(0.000301695787404 1.96637119955e-06 0)
(0.000300257560149 1.80707777763e-06 0)
(0.000298932294667 1.67420361881e-06 0)
(0.000297701704507 1.57222782666e-06 0)
(0.000296545610224 1.50718362891e-06 0)
(0.000295441905791 1.48681333082e-06 0)
(0.000294367171968 1.52034239582e-06 0)
(0.000293298638106 1.61706868984e-06 0)
(0.000292218724017 1.78145830405e-06 0)
(0.000291123159268 1.9974944078e-06 0)
(0.000290027080597 2.18272046863e-06 0)
(0.00122191119362 0.000221190920561 0)
(0.00125329941627 0.000382708990729 0)
(0.00125081419733 0.000396350250247 0)
(0.00121288588198 0.000356692330888 0)
(0.0011545401374 0.0003050522127 0)
(0.00108818617281 0.000255919364922 0)
(0.00102130411106 0.000213446640307 0)
(0.000957861078539 0.000178052650589 0)
(0.0008996878947 0.000148946784327 0)
(0.000847409149434 0.000125071558281 0)
(0.000801007801976 0.000105431201799 0)
(0.000760151255158 8.91848828325e-05 0)
(0.000724373184132 7.56536027406e-05 0)
(0.000693171374916 6.42992210306e-05 0)
(0.000666057837625 5.46978630464e-05 0)
(0.000642582367052 4.65154884099e-05 0)
(0.000622341682737 3.94877291405e-05 0)
(0.000604981002384 3.34040148638e-05 0)
(0.000590191867494 2.80953439203e-05 0)
(0.000577708313009 2.34249505139e-05 0)
(0.000567302498533 1.92811989995e-05 0)
(0.000558780374138 1.55721646235e-05 0)
(0.000551977653118 1.22214832323e-05 0)
(0.000546756200953 9.16515502103e-06 0)
(0.000543000863781 6.34906755371e-06 0)
(0.000540616716444 3.72706410838e-06 0)
(0.000539526690263 1.25942880435e-06 0)
(0.000539669533198 -1.0883062325e-06 0)
(0.000540998052315 -3.34629749729e-06 0)
(0.000543477591326 -5.54112617973e-06 0)
(0.000547084700118 -7.69637495332e-06 0)
(0.000551805952708 -9.83306333841e-06 0)
(0.000557636871016 -1.19699596871e-05 0)
(0.0005645809133 -1.41237804215e-05 0)
(0.000572648485376 -1.63092807503e-05 0)
(0.000581855930927 -1.8539235777e-05 0)
(0.000592224454389 -2.08243066192e-05 0)
(0.000603778926236 -2.31727825309e-05 0)
(0.000616546516342 -2.55901876668e-05 0)
(0.000630555096964 -2.80787401459e-05 0)
(0.0006458313537 -3.06366527185e-05 0)
(0.00066239854169 -3.32572692778e-05 0)
(0.000680273827093 -3.5928041712e-05 0)
(0.000699465162896 -3.86293682926e-05 0)
(0.000719967666134 -4.13333402729e-05 0)
(0.000741759494138 -4.4002478029e-05 0)
(0.000764797263791 -4.65885823259e-05 0)
(0.00078901112278 -4.90318763291e-05 0)
(0.000814299666123 -5.12606637365e-05 0)
(0.000840524992086 -5.31917652069e-05 0)
(0.000867508300319 -5.47320041949e-05 0)
(0.000895026536374 -5.57809762318e-05 0)
(0.000922810658892 -5.62352416717e-05 0)
(0.00095054612399 -5.5993929926e-05 0)
(0.000977876124789 -5.49655515696e-05 0)
(0.00100440798295 -5.30756110937e-05 0)
(0.00102972286816 -5.02744247776e-05 0)
(0.00105338873392 -4.65443795988e-05 0)
(0.00107497601311 -4.19057132865e-05 0)
(0.00109407521848 -3.64197690847e-05 0)
(0.00111031515884 -3.01886830664e-05 0)
(0.00112338009206 -2.33507710695e-05 0)
(0.00113302395041 -1.60716265956e-05 0)
(0.00113907997917 -8.53200812765e-06 0)
(0.0011414648012 -9.14571503526e-07 0)
(0.0011401769112 6.60812456937e-06 0)
(0.0011352905827 1.38823363558e-05 0)
(0.00112694678668 2.07777461775e-05 0)
(0.00111534280484 2.71883737055e-05 0)
(0.00110072187691 3.30309041726e-05 0)
(0.00108336365982 3.82418945007e-05 0)
(0.00106357570345 4.27751242412e-05 0)
(0.00104168573379 4.65998532557e-05 0)
(0.00101803435275 4.97001690707e-05 0)
(0.000992967798657 5.20751366119e-05 0)
(0.000966830591895 5.37391990836e-05 0)
(0.000939958128226 5.47222294087e-05 0)
(0.000912669499608 5.50687598038e-05 0)
(0.000885260960758 5.48361590929e-05 0)
(0.000858000488312 5.40918097821e-05 0)
(0.000831123797938 5.29095788934e-05 0)
(0.000804832023359 5.13660182456e-05 0)
(0.000779291068777 4.95367466467e-05 0)
(0.000754632471533 4.74933793546e-05 0)
(0.000730955488715 4.53012243937e-05 0)
(0.000708330062081 4.3017812857e-05 0)
(0.000686800314047 4.06922065357e-05 0)
(0.000666388267015 3.8364948762e-05 0)
(0.000647097540245 3.60684913038e-05 0)
(0.000628916846653 3.38279320742e-05 0)
(0.000611823175528 3.16619208224e-05 0)
(0.000595784600275 2.95836220337e-05 0)
(0.000580762690851 2.76016566861e-05 0)
(0.000566714539168 2.57209733866e-05 0)
(0.000553594423999 2.39436219022e-05 0)
(0.000541355152164 2.22694187745e-05 0)
(0.000529949117157 2.06965055814e-05 0)
(0.000519329116666 1.92218073097e-05 0)
(0.00050944896823 1.78414017001e-05 0)
(0.000500263958641 1.65508119803e-05 0)
(0.000491731158308 1.53452352536e-05 0)
(0.000483809627357 1.42197181739e-05 0)
(0.000476460535857 1.31692901998e-05 0)
(0.0004696472166 1.21890635434e-05 0)
(0.000463335165234 1.12743075051e-05 0)
(0.00045749199943 1.04205038553e-05 0)
(0.000452087386009 9.62338881581e-06 0)
(0.000447092942588 8.87898653164e-06 0)
(0.000442482118262 8.18363822019e-06 0)
(0.000438230056086 7.5340309213e-06 0)
(0.000434313438568 6.92722945443e-06 0)
(0.000430710316107 6.36071528607e-06 0)
(0.000427399917226 5.83243601286e-06 0)
(0.000424362438697 5.34086950836e-06 0)
(0.00042157881341 4.8851068912e-06 0)
(0.00041903045432 4.46495863956e-06 0)
(0.000416698974733 4.08108754538e-06 0)
(0.000414565889374 3.73517047643e-06 0)
(0.000412612308882 3.43008604201e-06 0)
(0.000410818655184 3.1701144399e-06 0)
(0.000409164450825 2.96111157131e-06 0)
(0.000407628277962 2.81056726936e-06 0)
(0.000406188070052 2.72734254394e-06 0)
(0.000404821994458 2.72062347531e-06 0)
(0.000403510281458 2.79703577669e-06 0)
(0.000402238242104 2.95344627832e-06 0)
(0.000400999408982 3.15990593199e-06 0)
(0.000399791622879 3.32417500157e-06 0)
(0.00121689846051 0.000182381260537 0)
(0.00124892306103 0.000358105809359 0)
(0.00126526060335 0.000407101083909 0)
(0.00125510530363 0.000394025088229 0)
(0.00122424084215 0.000356929637061 0)
(0.0011809854114 0.000313651311081 0)
(0.0011318962957 0.000271685846499 0)
(0.00108135521217 0.000233797535224 0)
(0.00103205488425 0.000200675386205 0)
(0.000985530246615 0.000172146314109 0)
(0.000942566871901 0.000147721143025 0)
(0.000903483496547 0.00012683483877 0)
(0.000868318528128 0.000108946661375 0)
(0.000836949900206 9.35765748194e-05 0)
(0.000809170576803 8.03133454238e-05 0)
(0.00078473521959 6.88108095069e-05 0)
(0.000763388382386 5.87799054986e-05 0)
(0.000744881008811 4.99798686544e-05 0)
(0.000728979604892 4.22100054864e-05 0)
(0.000715470882469 3.53025427719e-05 0)
(0.000704163649174 2.91166318468e-05 0)
(0.000694889065659 2.35334174901e-05 0)
(0.000687499972205 1.84520231693e-05 0)
(0.000681869720253 1.37862981183e-05 0)
(0.000677890775004 9.46218644905e-06 0)
(0.000675473247773 5.41560008098e-06 0)
(0.000674543448605 1.59069928824e-06 0)
(0.000675042506537 -2.06149558207e-06 0)
(0.000676925075142 -5.5842128788e-06 0)
(0.000680158126876 -9.01581746042e-06 0)
(0.000684719829221 -1.23905095201e-05 0)
(0.000690598482728 -1.57388482504e-05 0)
(0.000697791496329 -1.90881186043e-05 0)
(0.000706304371378 -2.24625491516e-05 0)
(0.000716149660954 -2.58833822254e-05 0)
(0.000727345866199 -2.93687917256e-05 0)
(0.00073991622654 -3.29336389999e-05 0)
(0.000753887355541 -3.658905324e-05 0)
(0.00076928766905 -4.0341820342e-05 0)
(0.000786145547708 -4.41935638559e-05 0)
(0.000804487172458 -4.81397047513e-05 0)
(0.000824333970739 -5.21681947437e-05 0)
(0.00084569961409 -5.62580330358e-05 0)
(0.000868586517341 -6.03776007246e-05 0)
(0.000892981808291 -6.4482883288e-05 0)
(0.000918852768364 -6.85157008341e-05 0)
(0.000946141792939 -7.2402127957e-05 0)
(0.00097476098837 -7.60513558204e-05 0)
(0.00100458661265 -7.93553191603e-05 0)
(0.00103545367634 -8.21894634933e-05 0)
(0.00106715114146 -8.44150403416e-05 0)
(0.00109941827204 -8.58832651637e-05 0)
(0.00113194277597 -8.64415354575e-05 0)
(0.00116436140409 -8.59416840597e-05 0)
(0.00119626361302 -8.42499610177e-05 0)
(0.001227198742 -8.12581426685e-05 0)
(0.00125668691091 -7.68949022942e-05 0)
(0.00128423353728 -7.11363514299e-05 0)
(0.00130934700584 -6.40144500196e-05 0)
(0.00133155859349 -5.5621791183e-05 0)
(0.00135044324692 -4.61112270436e-05 0)
(0.00136563930193 -3.56891955231e-05 0)
(0.00137686492741 -2.46026753891e-05 0)
(0.00138392925106 -1.31213114031e-05 0)
(0.00138673692362 -1.51777337025e-06 0)
(0.00138528612739 9.94999109984e-06 0)
(0.00137966127376 2.10516198015e-05 0)
(0.00137002237895 3.15911116629e-05 0)
(0.00135659315727 4.14081613051e-05 0)
(0.00133964938635 5.03757578109e-05 0)
(0.00131950837236 5.839620854e-05 0)
(0.00129651964468 6.53974264286e-05 0)
(0.00127105653618 7.13305583216e-05 0)
(0.00124350812814 7.61691803299e-05 0)
(0.00121427112211 7.99096120431e-05 0)
(0.00118374144455 8.25715349556e-05 0)
(0.0011523056862 8.41980438859e-05 0)
(0.00112033273758 8.48544530691e-05 0)
(0.00108816614124 8.46255343554e-05 0)
(0.00105611770652 8.36112783524e-05 0)
(0.00102446282398 8.1921623594e-05 0)
(0.000993437714223 7.96708021372e-05 0)
(0.000963238611726 7.69719681068e-05 0)
(0.000934022678468 7.39326406953e-05 0)
(0.000905910304511 7.06512760871e-05 0)
(0.000878988392966 6.72150594353e-05 0)
(0.000853314234257 6.36988304559e-05 0)
(0.000828919626729 6.01649466176e-05 0)
(0.000805814974425 5.66638429748e-05 0)
(0.000783993170364 5.32350515142e-05 0)
(0.000763433143516 4.9908475583e-05 0)
(0.000744103004609 4.67057602028e-05 0)
(0.000725962768648 4.36416449931e-05 0)
(0.000708966661762 4.07252268536e-05 0)
(0.000693065038981 3.79610915123e-05 0)
(0.00067820595027 3.53502965796e-05 0)
(0.000664336396877 3.28912046234e-05 0)
(0.000651403320735 3.05801747787e-05 0)
(0.000639354367722 2.84121268481e-05 0)
(0.000628138462163 2.63809943162e-05 0)
(0.000617706225747 2.44800830538e-05 0)
(0.00060801026966 2.27023517483e-05 0)
(0.000599005384362 2.10406286082e-05 0)
(0.000590648647449 1.94877772517e-05 0)
(0.000582899466307 1.80368229295e-05 0)
(0.000575719569073 1.66810486961e-05 0)
(0.000569072954509 1.54140697174e-05 0)
(0.000562925808978 1.42298928044e-05 0)
(0.000557246396558 1.31229673187e-05 0)
(0.000552004926553 1.20882329755e-05 0)
(0.000547173401169 1.11211695684e-05 0)
(0.000542725444919 1.02178533943e-05 0)
(0.000538636116498 9.3750249214e-06 0)
(0.000534881703424 8.59017208116e-06 0)
(0.000531439499926 7.86163311028e-06 0)
(0.000528287569605 7.18872193687e-06 0)
(0.000525404496716 6.57187690502e-06 0)
(0.000522769134265 6.0128291694e-06 0)
(0.000520360364354 5.5147780494e-06 0)
(0.000518156897751 5.08254309759e-06 0)
(0.000516137156954 4.72262853409e-06 0)
(0.000514279311245 4.44306949863e-06 0)
(0.00051256156112 4.25279921386e-06 0)
(0.000510962788366 4.16001636103e-06 0)
(0.000509463634407 4.16851144166e-06 0)
(0.000508047717314 4.26992886362e-06 0)
(0.000506701334419 4.4286410452e-06 0)
(0.000505406906784 4.55765490228e-06 0)
(0.0012127990779 0.000152683715861 0)
(0.00124151094653 0.000327066865716 0)
(0.0012652838797 0.00039802952662 0)
(0.00127120142856 0.000407334371246 0)
(0.00125953235788 0.000386153860777 0)
(0.00123492516037 0.000352289689743 0)
(0.00120222227775 0.000314839439979 0)
(0.00116526070362 0.000278146573105 0)
(0.00112677908602 0.000244108267499 0)
(0.0010886201587 0.000213396971437 0)
(0.00105196443342 0.000186089559397 0)
(0.00101752549733 0.000161988707593 0)
(0.000985697323341 0.000140785908794 0)
(0.000956660452167 0.00012214280042 0)
(0.000930456671154 0.000105730198276 0)
(0.000907040702435 9.12452567613e-05 0)
(0.000886315527522 7.84174446994e-05 0)
(0.000868156236754 6.70089683293e-05 0)
(0.000852425911888 5.68126093576e-05 0)
(0.000838986020116 4.764852812e-05 0)
(0.000827703052796 3.93608224429e-05 0)
(0.000818452612835 3.18142260466e-05 0)
(0.000811121782613 2.48911143579e-05 0)
(0.000805610344567 1.84888734441e-05 0)
(0.000801831245877 1.25176320806e-05 0)
(0.000799710573305 6.89833183659e-06 0)
(0.000799187216982 1.561101241e-06 0)
(0.000800212341292 -3.55610084782e-06 0)
(0.000802748735759 -8.50859096264e-06 0)
(0.000806770095157 -1.33458698958e-05 0)
(0.000812260255303 -1.81123379709e-05 0)
(0.000819212388572 -2.28478238611e-05 0)
(0.000827628155131 -2.75879392046e-05 0)
(0.000837516796605 -3.23642597473e-05 0)
(0.000848894150175 -3.72043279162e-05 0)
(0.00086178155365 -4.21314661966e-05 0)
(0.000876204605056 -4.71643858341e-05 0)
(0.000892191733644 -5.23165714733e-05 0)
(0.00090977253303 -5.75954201984e-05 0)
(0.000928975801613 -6.30011139337e-05 0)
(0.000949827231204 -6.85252089889e-05 0)
(0.000972346682928 -7.41489375516e-05 0)
(0.000996544991423 -7.9841235972e-05 0)
(0.00102242024638 -8.55565465644e-05 0)
(0.00104995351758 -9.12324866609e-05 0)
(0.00107910401934 -9.67875427253e-05 0)
(0.00110980375759 -0.000102119028605 0)
(0.00114195177147 -0.000107101640446 0)
(0.00117540817529 -0.000111587034873 0)
(0.00120998832512 -0.000115404929923 0)
(0.00124545757039 -0.000118366249508 0)
(0.00128152718743 -0.000120268765677 0)
(0.00131785219996 -0.00012090551072 0)
(0.00135403183478 -0.000120075928873 0)
(0.00138961330523 -0.000117599351234 0)
(0.00142409944664 -0.00011332997789 0)
(0.00145696046318 -0.000107172208015 0)
(0.00148764971854 -9.90948846168e-05 0)
(0.00151562313099 -8.9142758085e-05 0)
(0.00154036127948 -7.74431840952e-05 0)
(0.0015613927392 -6.42059183048e-05 0)
(0.00157831648565 -4.97142845163e-05 0)
(0.00159082070356 -3.4307417788e-05 0)
(0.00159869543283 -1.83556203097e-05 0)
(0.00160183744947 -2.23316316224e-06 0)
(0.00160024740104 1.37062048011e-05 0)
(0.00159402083035 2.9146798899e-05 0)
(0.00158333563358 4.38199828441e-05 0)
(0.00156843846916 5.75056264824e-05 0)
(0.00154963192729 7.00285487217e-05 0)
(0.00152726330424 8.12529924899e-05 0)
(0.00150171495647 9.10776516625e-05 0)
(0.00147339566385 9.94326652054e-05 0)
(0.00144273227405 0.000106278800782 0)
(0.00141016106109 0.000111608139739 0)
(0.00137611856796 0.00011544510784 0)
(0.00134103208014 0.000117846648716 0)
(0.001305310194 0.000118900617009 0)
(0.00126933413296 0.000118721964889 0)
(0.00123345048512 0.00011744687101 0)
(0.00119796589121 0.000115225451895 0)
(0.00116314395353 0.000112213969816 0)
(0.00112920434734 0.00010856746178 0)
(0.00109632387205 0.000104433512323 0)
(0.00106463902715 9.9947584058e-05 0)
(0.00103424964294 9.52300117792e-05 0)
(0.00100522311987 9.03845280715e-05 0)
(0.000977598901084 8.54980468906e-05 0)
(0.000951392892869 8.06413779289e-05 0)
(0.000926601636367 7.58705547111e-05 0)
(0.000903206110009 7.12285058051e-05 0)
(0.000881175101894 6.67468595959e-05 0)
(0.000860468134423 6.24477337706e-05 0)
(0.000841037952636 5.83454134171e-05 0)