/*--------------------------------*- C++ -*----------------------------------*\
  =========                 |
  \\      /  F ield         | OpenFOAM: The Open Source CFD Toolbox
   \\    /   O peration     | Website:  https://openfoam.org
    \\  /    A nd           | Version:  7
     \\/     M anipulation  |
\*---------------------------------------------------------------------------*/
FoamFile
{
    version     2.0;
    format      ascii;
    class       volScalarField;
    location    "3600";
    object      Ci;
}
// * * * * * * * * * * * * * * * * * * * * * * * * * * * * * * * * * * * * * //

dimensions      [0 -3 0 0 1 0 0];

internalField   nonuniform List<scalar> 
8192
(
9.99999999442
10.0000000198
10.0000000626
10.0000001275
10.0000002193
10.0000003301
10.0000004531
10.000000583
10.0000007173
10.0000008532
10.0000009891
10.0000011225
10.0000012522
10.0000013761
10.0000014933
10.0000016018
10.0000017014
10.0000017904
10.000001869
10.0000019358
10.0000019918
10.0000020354
10.0000020681
10.0000020887
10.0000020991
10.0000020979
10.0000020874
10.0000020663
10.0000020368
10.0000019976
10.0000019509
10.000001895
10.0000018321
10.0000017602
10.0000016812
10.0000015925
10.0000014961
10.0000013888
10.0000012726
10.0000011443
10.0000010057
10.0000008538
10.0000006909
10.0000005147
10.0000003284
10.0000001302
9.9999999246
9.99999971074
9.99999949401
9.99999927419
9.99999905734
9.99999884349
9.99999863899
9.99999844391
9.99999826488
9.99999810222
9.99999796333
9.99999784939
9.99999776918
9.99999772519
9.99999772751
9.99999777924
9.99999789022
9.99999806182
9.99999830069
9.99999860347
9.99999897114
9.99999939449
9.99999986919
10.0000003821
10.0000009263
10.000001488
10.0000020605
10.0000026315
10.0000031959
10.0000037439
10.0000042729
10.0000047757
10.0000052521
10.0000056977
10.0000061147
10.0000065012
10.0000068612
10.0000071943
10.0000075057
10.0000077959
10.0000080702
10.0000083293
10.000008578
10.0000088166
10.000009049
10.0000092747
10.0000094964
10.000009713
10.0000099262
10.0000101343
10.0000103383
10.0000105362
10.0000107286
10.0000109134
10.0000110907
10.0000112586
10.0000114172
10.0000115649
10.0000117017
10.0000118263
10.0000119388
10.0000120384
10.0000121251
10.0000121986
10.0000122589
10.0000123061
10.0000123403
10.0000123616
10.0000123704
10.0000123669
10.0000123513
10.0000123237
10.0000122841
10.0000122325
10.0000121682
10.0000120916
10.0000120026
10.0000119034
10.0000117976
10.000011692
10.0000115965
10.0000115284
9.99999999849
10.0000000361
10.0000000816
10.0000001421
10.0000002214
10.0000003166
10.0000004249
10.0000005429
10.0000006682
10.0000007977
10.0000009295
10.0000010607
10.00000119
10.0000013149
10.0000014344
10.0000015464
10.0000016506
10.000001745
10.0000018298
10.0000019036
10.0000019669
10.0000020186
10.0000020596
10.000002089
10.0000021083
10.0000021165
10.0000021153
10.0000021039
10.000002084
10.0000020548
10.000002018
10.0000019725
10.0000019201
10.0000018591
10.0000017912
10.0000017144
10.0000016301
10.0000015361
10.0000014337
10.0000013203
10.0000011974
10.0000010625
10.0000009173
10.00000076
10.0000005931
10.0000004153
10.0000002302
10.0000000373
9.99999984076
9.99999964073
9.99999944204
9.999999245
9.99999905471
9.99999887158
9.99999870099
9.99999854368
9.99999840575
9.99999828882
9.99999820022
9.99999814279
9.99999812501
9.99999815034
9.99999822705
9.99999835725
9.9999985466
9.99999879345
9.99999909879
9.9999994562
9.9999998622
10.0000003069
10.0000007844
10.0000012837
10.0000017987
10.000002319
10.0000028395
10.0000033513
10.0000038512
10.0000043322
10.000004793
10.0000052293
10.0000056416
10.0000060279
10.0000063905
10.000006729
10.0000070471
10.0000073454
10.0000076279
10.0000078955
10.0000081522
10.0000083988
10.0000086384
10.000008871
10.0000090988
10.0000093212
10.0000095396
10.0000097529
10.0000099618
10.0000101649
10.0000103623
10.0000105525
10.0000107354
10.0000109094
10.0000110745
10.0000112292
10.0000113734
10.0000115061
10.0000116271
10.0000117357
10.000011832
10.0000119154
10.0000119862
10.0000120441
10.0000120895
10.0000121222
10.0000121427
10.0000121512
10.0000121477
10.0000121325
10.0000121054
10.0000120666
10.0000120154
10.0000119519
10.0000118763
10.0000117907
10.0000116983
10.0000116036
10.0000115109
10.0000114325
9.99999999963
10.0000000503
10.0000001023
10.0000001582
10.0000002248
10.0000003022
10.0000003906
10.0000004886
10.0000005957
10.0000007095
10.000000829
10.0000009512
10.0000010751
10.0000011978
10.0000013184
10.0000014343
10.0000015451
10.0000016486
10.0000017448
10.0000018317
10.0000019102
10.0000019783
10.0000020373
10.0000020855
10.0000021248
10.0000021535
10.0000021738
10.000002184
10.0000021865
10.0000021798
10.0000021662
10.000002144
10.0000021156
10.0000020791
10.0000020367
10.000001986
10.0000019295
10.0000018642
10.0000017924
10.0000017111
10.0000016226
10.0000015239
10.0000014175
10.0000013005
10.0000011762
10.0000010419
10.0000009017
10.0000007534
10.0000006017
10.0000004449
10.0000002879
10.0000001294
9.99999997454
9.99999982176
9.99999967651
9.99999953745
9.99999941056
9.99999929512
9.99999919816
9.99999911998
9.99999906879
9.99999904571
9.99999905929
9.99999911025
9.99999920579
9.99999934439
9.99999953021
9.99999975848
10.00000003
10.0000003372
10.0000006787
10.0000010458
10.0000014359
10.0000018402
10.0000022562
10.0000026754
10.0000030956
10.0000035097
10.0000039164
10.0000043099
10.0000046904
10.000005054
10.0000054022
10.0000057326
10.000006048
10.0000063473
10.0000066338
10.0000069071
10.0000071707
10.0000074243
10.0000076712
10.0000079108
10.0000081456
10.0000083748
10.0000086001
10.0000088204
10.0000090367
10.0000092476
10.0000094537
10.0000096534
10.000009847
10.0000100328
10.0000102111
10.0000103803
10.0000105405
10.0000106905
10.0000108304
10.0000109592
10.000011077
10.0000111833
10.0000112781
10.0000113611
10.0000114325
10.0000114923
10.0000115405
10.0000115775
10.0000116032
10.0000116179
10.0000116214
10.0000116139
10.0000115947
10.000011564
10.0000115215
10.0000114686
10.0000114081
10.0000113415
10.0000112744
10.0000111959
9.99999999939
10.000000063
10.0000001195
10.000000178
10.0000002433
10.0000003152
10.0000003942
10.0000004803
10.0000005735
10.0000006732
10.0000007787
10.0000008885
10.0000010017
10.0000011163
10.0000012313
10.0000013448
10.0000014558
10.0000015626
10.0000016646
10.0000017604
10.0000018498
10.0000019315
10.0000020057
10.0000020716
10.0000021297
10.0000021792
10.0000022211
10.0000022546
10.0000022809
10.0000022995
10.0000023116
10.0000023165
10.0000023154
10.0000023078
10.0000022946
10.0000022751
10.0000022502
10.0000022189
10.0000021819
10.0000021379
10.0000020878
10.0000020303
10.000001966
10.0000018939
10.000001815
10.0000017283
10.0000016355
10.0000015357
10.000001431
10.0000013211
10.0000012082
10.0000010922
10.0000009753
10.0000008576
10.0000007416
10.0000006272
10.0000005174
10.0000004129
10.0000003174
10.0000002326
10.000000163
10.0000001114
10.0000000829
10.00000008
10.000000107
10.0000001651
10.0000002563
10.0000003793
10.0000005341
10.0000007173
10.0000009275
10.0000011607
10.0000014149
10.0000016859
10.0000019716
10.0000022677
10.000002572
10.0000028804
10.0000031912
10.0000035005
10.0000038073
10.0000041086
10.0000044041
10.000004692
10.0000049726
10.000005245
10.0000055102
10.0000057679
10.0000060195
10.0000062649
10.0000065055
10.0000067414
10.0000069735
10.0000072017
10.0000074268
10.0000076483
10.0000078666
10.0000080809
10.0000082913
10.000008497
10.0000086977
10.0000088927
10.0000090814
10.0000092632
10.0000094376
10.0000096039
10.0000097618
10.0000099107
10.0000100502
10.0000101801
10.0000103001
10.00001041
10.0000105098
10.0000105992
10.0000106785
10.0000107476
10.0000108065
10.0000108554
10.0000108942
10.000010923
10.0000109415
10.0000109496
10.0000109471
10.0000109349
10.0000109135
10.000010882
10.0000108521
10.0000107822
10.000000004
10.0000000801
10.0000001495
10.0000002137
10.0000002803
10.0000003503
10.0000004248
10.000000504
10.0000005887
10.0000006783
10.000000773
10.0000008717
10.000000974
10.0000010786
10.0000011848
10.000001291
10.0000013966
10.0000015002
10.0000016012
10.0000016982
10.000001791
10.0000018785
10.0000019606
10.0000020365
10.0000021064
10.0000021695
10.0000022265
10.0000022768
10.0000023211
10.000002359
10.0000023913
10.0000024176
10.0000024389
10.0000024546
10.0000024656
10.0000024713
10.0000024725
10.0000024685
10.0000024598
10.0000024455
10.0000024261
10.0000024007
10.0000023697
10.0000023321
10.0000022886
10.0000022382
10.000002182
10.0000021193
10.0000020513
10.0000019777
10.0000018998
10.0000018176
10.0000017326
10.0000016446
10.0000015553
10.0000014649
10.0000013753
10.0000012872
10.0000012034
10.0000011253
10.0000010569
10.0000010001
10.0000009595
10.0000009371
10.0000009365
10.0000009584
10.0000010044
10.0000010731
10.0000011643
10.000001275
10.0000014043
10.0000015491
10.0000017084
10.0000018797
10.0000020621
10.0000022534
10.0000024526
10.0000026578
10.0000028683
10.0000030822
10.0000032989
10.0000035168
10.0000037358
10.0000039546
10.0000041733
10.0000043909
10.0000046079
10.0000048238
10.0000050389
10.0000052529
10.0000054664
10.0000056789
10.0000058909
10.000006102
10.0000063124
10.0000065215
10.0000067293
10.0000069352
10.000007139
10.00000734
10.0000075379
10.0000077319
10.0000079215
10.0000081062
10.0000082855
10.0000084587
10.0000086254
10.0000087852
10.0000089376
10.0000090823
10.0000092189
10.0000093473
10.0000094673
10.0000095786
10.0000096812
10.000009775
10.00000986
10.0000099363
10.0000100037
10.0000100623
10.0000101119
10.0000101524
10.0000101836
10.0000102055
10.0000102198
10.0000102208
10.0000102281
10.0000101812
10.000000004
10.0000000884
10.000000163
10.0000002351
10.0000003084
10.0000003826
10.0000004586
10.0000005369
10.0000006184
10.0000007031
10.0000007913
10.0000008825
10.0000009766
10.0000010727
10.0000011704
10.0000012687
10.0000013671
10.0000014645
10.0000015604
10.000001654
10.0000017447
10.0000018319
10.0000019152
10.000001994
10.0000020683
10.0000021376
10.000002202
10.0000022613
10.0000023157
10.000002365
10.0000024097
10.0000024496
10.0000024851
10.0000025161
10.000002543
10.0000025655
10.000002584
10.0000025981
10.0000026081
10.0000026134
10.0000026141
10.0000026094
10.0000025996
10.0000025838
10.0000025622
10.0000025343
10.0000025002
10.0000024598
10.0000024135
10.0000023612
10.0000023038
10.0000022413
10.0000021747
10.0000021042
10.0000020309
10.0000019552
10.0000018787
10.0000018023
10.0000017283
10.0000016586
10.0000015962
10.0000015441
10.0000015057
10.0000014836
10.0000014804
10.0000014971
10.000001534
10.0000015896
10.0000016621
10.0000017488
10.0000018475
10.0000019554
10.000002071
10.0000021924
10.0000023187
10.0000024485
10.0000025816
10.0000027171
10.0000028551
10.0000029951
10.0000031374
10.0000032817
10.0000034286
10.0000035778
10.00000373
10.000003885
10.0000040432
10.0000042045
10.0000043692
10.0000045371
10.0000047084
10.0000048825
10.0000050596
10.0000052391
10.0000054208
10.0000056041
10.0000057886
10.0000059737
10.0000061589
10.0000063434
10.0000065268
10.0000067084
10.0000068876
10.0000070638
10.0000072365
10.000007405
10.0000075689
10.0000077277
10.0000078811
10.0000080285
10.0000081697
10.0000083044
10.0000084322
10.000008553
10.0000086667
10.000008773
10.0000088719
10.0000089634
10.0000090473
10.0000091237
10.0000091925
10.0000092535
10.0000093066
10.0000093508
10.0000093884
10.000009412
10.000009444
10.0000094264
10.0000000074
10.0000000985
10.0000001832
10.0000002609
10.0000003379
10.0000004146
10.0000004916
10.0000005697
10.0000006494
10.0000007312
10.0000008152
10.0000009014
10.0000009895
10.0000010791
10.0000011699
10.0000012613
10.0000013528
10.0000014437
10.0000015336
10.0000016219
10.0000017081
10.0000017917
10.0000018724
10.0000019498
10.0000020237
10.0000020938
10.00000216
10.0000022222
10.0000022805
10.0000023347
10.000002385
10.0000024314
10.0000024742
10.0000025131
10.0000025485
10.0000025802
10.0000026084
10.0000026328
10.0000026533
10.0000026697
10.0000026817
10.0000026889
10.0000026911
10.0000026877
10.0000026784
10.000002663
10.0000026412
10.0000026129
10.0000025782
10.0000025373
10.0000024904
10.000002438
10.0000023805
10.0000023185
10.0000022528
10.000002184
10.0000021134
10.0000020424
10.0000019729
10.0000019073
10.0000018486
10.0000018001
10.0000017651
10.0000017468
10.0000017474
10.000001768
10.0000018083
10.0000018667
10.0000019405
10.0000020266
10.0000021217
10.0000022232
10.0000023286
10.0000024359
10.0000025437
10.0000026508
10.0000027566
10.0000028605
10.0000029626
10.0000030631
10.0000031623
10.000003261
10.00000336
10.0000034601
10.0000035622
10.0000036671
10.0000037756
10.0000038882
10.0000040054
10.0000041276
10.0000042549
10.0000043873
10.0000045247
10.0000046667
10.000004813
10.0000049632
10.0000051166
10.0000052726
10.0000054306
10.00000559
10.0000057499
10.0000059099
10.0000060692
10.0000062272
10.0000063832
10.0000065369
10.0000066875
10.0000068346
10.0000069777
10.0000071165
10.0000072505
10.0000073795
10.0000075031
10.0000076211
10.0000077332
10.0000078393
10.0000079393
10.0000080331
10.0000081205
10.0000082017
10.0000082764
10.0000083445
10.0000084061
10.00000846
10.0000085077
10.0000085437
10.0000085845
10.0000085924
10.0000000053
10.0000000997
10.0000001856
10.0000002692
10.0000003526
10.0000004348
10.0000005158
10.0000005964
10.0000006772
10.0000007586
10.0000008411
10.0000009247
10.0000010094
10.0000010949
10.0000011811
10.0000012674
10.0000013536
10.0000014392
10.000001524
10.0000016073
10.0000016889
10.0000017684
10.0000018455
10.0000019199
10.0000019915
10.0000020599
10.0000021252
10.000002187
10.0000022457
10.0000023009
10.000002353
10.0000024015
10.0000024471
10.0000024893
10.0000025286
10.0000025644
10.0000025974
10.0000026266
10.0000026527
10.0000026746
10.0000026929
10.0000027062
10.0000027149
10.000002718
10.0000027155
10.0000027065
10.0000026912
10.0000026691
10.0000026403
10.0000026048
10.0000025629
10.0000025148
10.0000024611
10.0000024022
10.0000023389
10.0000022718
10.0000022021
10.0000021313
10.0000020614
10.0000019952
10.0000019359
10.0000018872
10.000001853
10.0000018369
10.0000018413
10.0000018675
10.0000019149
10.0000019813
10.0000020633
10.0000021569
10.0000022585
10.0000023649
10.0000024734
10.0000025817
10.0000026882
10.0000027915
10.0000028907
10.0000029852
10.0000030748
10.0000031596
10.0000032401
10.0000033171
10.0000033916
10.0000034646
10.0000035373
10.0000036109
10.0000036866
10.0000037652
10.0000038476
10.0000039346
10.0000040266
10.0000041238
10.0000042264
10.0000043343
10.0000044472
10.0000045648
10.0000046867
10.0000048122
10.0000049409
10.000005072
10.0000052049
10.0000053389
10.0000054735
10.000005608
10.0000057417
10.0000058742
10.0000060048
10.0000061332
10.0000062587
10.0000063811
10.0000064999
10.0000066147
10.0000067253
10.0000068314
10.0000069328
10.0000070293
10.0000071207
10.0000072069
10.0000072879
10.0000073637
10.000007434
10.0000074992
10.0000075584
10.0000076119
10.0000076585
10.0000076982
10.0000077355
10.0000077604
10.0000000083
10.0000001075
10.0000002012
10.000000288
10.0000003734
10.0000004575
10.0000005401
10.0000006219
10.0000007032
10.0000007846
10.0000008663
10.0000009485
10.000001031
10.0000011139
10.000001197
10.0000012799
10.0000013624
10.0000014442
10.0000015251
10.0000016046
10.0000016825
10.0000017585
10.0000018324
10.000001904
10.000001973
10.0000020393
10.0000021029
10.0000021635
10.0000022214
10.0000022761
10.0000023283
10.0000023772
10.0000024239
10.000002467
10.0000025084
10.0000025458
10.0000025818
10.0000026132
10.0000026432
10.000002668
10.0000026908
10.0000027077
10.0000027215
10.000002729
10.0000027317
10.0000027278
10.0000027177
10.0000027007
10.0000026768
10.0000026462
10.0000026087
10.0000025648
10.0000025146
10.0000024588
10.0000023977
10.000002332
10.0000022627
10.0000021912
10.0000021197
10.0000020509
10.0000019884
10.0000019366
10.0000018995
10.0000018815
10.0000018854
10.0000019126
10.0000019623
10.000002032
10.0000021176
10.0000022149
10.0000023199
10.0000024294
10.0000025403
10.0000026507
10.0000027586
10.0000028627
10.0000029619
10.0000030554
10.0000031428
10.000003224
10.0000032993
10.0000033693
10.0000034348
10.0000034969
10.0000035566
10.0000036153
10.000003674
10.000003734
10.0000037961
10.0000038614
10.0000039303
10.0000040036
10.0000040813
10.0000041638
10.0000042508
10.0000043423
10.0000044379
10.0000045372
10.0000046397
10.0000047449
10.0000048522
10.0000049612
10.0000050711
10.0000051815
10.0000052918
10.0000054014
10.0000055099
10.0000056167
10.0000057216
10.000005824
10.0000059235
10.00000602
10.000006113
10.0000062023
10.0000062877
10.0000063691
10.0000064463
10.0000065192
10.0000065877
10.000006652
10.0000067115
10.0000067673
10.0000068175
10.0000068643
10.000006903
10.0000069403
10.0000069682
10.0000070006
10.0000000058
10.0000001073
10.0000002012
10.0000002927
10.0000003836
10.0000004725
10.0000005591
10.0000006439
10.0000007274
10.0000008102
10.0000008925
10.0000009746
10.0000010566
10.0000011383
10.0000012198
10.0000013009
10.0000013813
10.0000014608
10.0000015392
10.0000016163
10.0000016918
10.0000017655
10.0000018372
10.0000019067
10.0000019741
10.0000020387
10.0000021012
10.0000021606
10.0000022181
10.000002272
10.0000023248
10.000002373
10.0000024215
10.000002464
10.0000025085
10.0000025453
10.0000025859
10.0000026167
10.0000026528
10.0000026773
10.0000027073
10.0000027247
10.0000027461
10.0000027554
10.0000027653
10.0000027647
10.0000027609
10.0000027485
10.0000027301
10.0000027042
10.0000026714
10.0000026316
10.0000025851
10.000002532
10.0000024727
10.0000024076
10.0000023374
10.0000022636
10.0000021881
10.0000021142
10.0000020458
10.0000019882
10.0000019463
10.0000019253
10.0000019285
10.0000019578
10.0000020115
10.0000020865
10.0000021772
10.0000022789
10.0000023868
10.0000024975
10.0000026084
10.0000027175
10.0000028233
10.0000029246
10.0000030205
10.0000031105
10.0000031941
10.0000032714
10.0000033425
10.0000034079
10.0000034683
10.0000035246
10.0000035777
10.0000036288
10.0000036788
10.000003729
10.0000037801
10.0000038332
10.0000038888
10.0000039475
10.0000040097
10.0000040756
10.0000041452
10.0000042183
10.0000042949
10.0000043746
10.0000044571
10.0000045418
10.0000046284
10.0000047164
10.0000048054
10.0000048947
10.000004984
10.0000050728
10.0000051607
10.0000052472
10.000005332
10.0000054148
10.0000054952
10.0000055729
10.0000056478
10.0000057195
10.0000057878
10.0000058528
10.0000059142
10.0000059721
10.0000060261
10.0000060769
10.0000061236
10.0000061676
10.0000062064
10.0000062439
10.0000062723
10.0000063036
10.000006321
10.0000063536
10.0000000089
10.0000001157
10.0000002173
10.0000003115
10.0000004039
10.0000004943
10.0000005824
10.0000006687
10.0000007534
10.0000008371
10.00000092
10.0000010024
10.0000010843
10.0000011657
10.0000012465
10.0000013266
10.0000014059
10.0000014843
10.0000015614
10.0000016372
10.0000017114
10.0000017839
10.0000018546
10.000001923
10.0000019896
10.0000020533
10.0000021158
10.0000021743
10.0000022327
10.0000022856
10.0000023406
10.0000023873
10.0000024399
10.0000024797
10.0000025313
10.0000025633
10.0000026147
10.0000026384
10.0000026893
10.0000027046
10.0000027527
10.0000027605
10.0000028009
10.0000028027
10.0000028299
10.0000028264
10.0000028358
10.0000028254
10.0000028164
10.0000027958
10.00000277
10.0000027361
10.0000026951
10.0000026469
10.0000025912
10.0000025283
10.0000024586
10.0000023832
10.0000023041
10.0000022247
10.0000021496
10.0000020846
10.000002036
10.0000020097
10.00000201
10.0000020385
10.0000020934
10.0000021701
10.0000022626
10.0000023648
10.0000024719
10.0000025804
10.0000026877
10.000002792
10.0000028923
10.0000029877
10.0000030774
10.0000031612
10.0000032389
10.0000033105
10.0000033763
10.0000034367
10.0000034923
10.0000035438
10.0000035921
10.0000036382
10.0000036829
10.0000037273
10.0000037721
10.0000038181
10.000003866
10.0000039161
10.0000039689
10.0000040246
10.000004083
10.0000041443
10.0000042082
10.0000042745
10.0000043428
10.0000044128
10.0000044841
10.0000045563
10.0000046291
10.0000047019
10.0000047744
10.0000048463
10.0000049172
10.0000049867
10.0000050545
10.0000051203
10.000005184
10.0000052452
10.0000053038
10.0000053596
10.0000054124
10.0000054623
10.0000055091
10.0000055529
10.0000055934
10.0000056314
10.0000056657
10.0000056984
10.0000057261
10.000005754
10.0000057731
10.0000057972
10.0000058063
10.0000058342
10.0000000063
10.0000001158
10.0000002178
10.0000003169
10.000000415
10.0000005103
10.0000006027
10.0000006923
10.0000007799
10.0000008658
10.0000009505
10.0000010341
10.0000011169
10.0000011988
10.00000128
10.0000013602
10.0000014395
10.0000015176
10.0000015946
10.00000167
10.0000017441
10.0000018162
10.000001887
10.000001955
10.0000020223
10.0000020855
10.0000021495
10.000002207
10.0000022684
10.0000023191
10.0000023798
10.0000024218
10.0000024845
10.0000025152
10.0000025838
10.0000025995
10.0000026782
10.0000026755
10.0000027665
10.0000027439
10.0000028448
10.0000028058
10.0000029068
10.0000028605
10.0000029455
10.0000029038
10.0000029575
10.0000029267
10.0000029438
10.0000029192
10.0000029058
10.000002876
10.0000028414
10.0000027975
10.000002745
10.0000026832
10.0000026122
10.0000025327
10.0000024466
10.0000023579
10.0000022719
10.0000021964
10.0000021389
10.0000021075
10.0000021073
10.0000021403
10.0000022031
10.0000022895
10.0000023906
10.0000024991
10.0000026091
10.0000027171
10.0000028208
10.0000029189
10.0000030108
10.0000030961
10.0000031749
10.0000032472
10.0000033135
10.000003374
10.0000034293
10.00000348
10.0000035267
10.00000357
10.0000036108
10.0000036497
10.0000036878
10.0000037258
10.0000037644
10.0000038042
10.0000038459
10.0000038896
10.0000039356
10.0000039841
10.000004035
10.0000040882
10.0000041435
10.0000042005
10.0000042591
10.0000043187
10.0000043792
10.0000044401
10.0000045011
10.0000045617
10.0000046218
10.0000046808
10.0000047387
10.000004795
10.0000048496
10.0000049022
10.0000049526
10.0000050006
10.0000050462
10.0000050892
10.0000051295
10.0000051672
10.0000052021
10.0000052344
10.000005264
10.0000052914
10.0000053158
10.000005339
10.0000053581
10.0000053778
10.0000053898
10.0000054071
10.0000054111
10.0000054327
10.0000000096
10.0000001248
10.0000002348
10.0000003368
10.0000004364
10.0000005335
10.0000006278
10.0000007195
10.0000008091
10.0000008968
10.0000009831
10.0000010681
10.0000011521
10.000001235
10.000001317
10.0000013979
10.0000014778
10.0000015564
10.0000016339
10.0000017097
10.0000017845
10.0000018569
10.0000019288
10.0000019969
10.000002066
10.0000021288
10.000002196
10.0000022517
10.0000023191
10.000002365
10.0000024367
10.0000024678
10.0000025511
10.0000025593
10.0000026648
10.0000026385
10.0000027803
10.0000027053
10.0000028968
10.0000027616
10.0000030082
10.0000028136
10.0000031007
10.0000028702
10.0000031571
10.0000029368
10.0000031668
10.0000030045
10.0000031369
10.0000030481
10.0000030867
10.0000030433
10.0000030252
10.0000029855
10.0000029387
10.0000028801
10.0000028094
10.0000027266
10.0000026338
10.0000025348
10.0000024363
10.0000023476
10.0000022789
10.0000022399
10.0000022373
10.0000022727
10.0000023419
10.0000024358
10.0000025438
10.0000026569
10.0000027687
10.0000028754
10.0000029751
10.0000030667
10.0000031499
10.0000032249
10.0000032922
10.0000033525
10.0000034065
10.000003455
10.0000034989
10.0000035387
10.0000035753
10.0000036093
10.0000036414
10.0000036723
10.0000037028
10.0000037335
10.0000037652
10.0000037985
10.0000038337
10.0000038712
10.0000039111
10.0000039534
10.0000039979
10.0000040445
10.000004093
10.000004143
10.0000041941
10.000004246
10.0000042984
10.0000043509
10.0000044031
10.0000044547
10.0000045054
10.0000045549
10.000004603
10.0000046494
10.0000046939
10.0000047365
10.0000047768
10.0000048149
10.0000048505
10.0000048838
10.0000049146
10.0000049429
10.0000049688
10.0000049924
10.0000050138
10.0000050332
10.0000050503
10.0000050663
10.0000050793
10.0000050927
10.0000051004
10.0000051119
10.000005114
10.000005129
10.0000000071
10.0000001253
10.000000236
10.000000343
10.0000004484
10.0000005507
10.0000006496
10.0000007454
10.0000008385
10.0000009293
10.0000010183
10.0000011057
10.0000011917
10.0000012764
10.00000136
10.0000014423
10.0000015236
10.0000016034
10.0000016823
10.0000017591
10.0000018355
10.0000019086
10.0000019826
10.000002051
10.0000021234
10.0000021853
10.0000022579
10.0000023102
10.0000023874
10.0000024242
10.0000025147
10.000002525
10.0000026443
10.000002609
10.0000027829
10.0000026711
10.000002938
10.0000027062
10.0000031143
10.0000027132
10.0000033061
10.0000027033
10.0000034882
10.000002706
10.0000036134
10.0000027632
10.0000036321
10.0000028968
10.000003536
10.0000030685
10.0000033864
10.0000031878
10.000003261
10.0000031943
10.0000031618
10.000003103
10.0000030292
10.0000029386
10.0000028328
10.0000027154
10.0000025959
10.0000024871
10.0000024017
10.0000023536
10.0000023518
10.0000023987
10.0000024863
10.0000026014
10.0000027285
10.0000028561
10.000002977
10.0000030875
10.0000031859
10.0000032717
10.0000033453
10.0000034077
10.0000034602
10.0000035043
10.0000035417
10.0000035737
10.0000036017
10.0000036266
10.0000036493
10.0000036705
10.0000036909
10.0000037111
10.0000037317
10.0000037534
10.0000037765
10.0000038018
10.0000038297
10.0000038601
10.0000038933
10.0000039292
10.0000039674
10.0000040079
10.0000040501
10.0000040939
10.0000041386
10.0000041841
10.0000042298
10.0000042754
10.0000043206
10.000004365
10.0000044084
10.0000044505
10.0000044911
10.0000045299
10.0000045669
10.0000046017
10.0000046346
10.0000046651
10.0000046935
10.0000047194
10.0000047434
10.0000047648
10.0000047846
10.0000048017
10.0000048177
10.0000048311
10.0000048438
10.0000048543
10.0000048641
10.0000048723
10.0000048785
10.0000048846
10.0000048872
10.0000048951
10.0000000105
10.0000001345
10.0000002531
10.0000003629
10.00000047
10.0000005742
10.0000006754
10.0000007737
10.0000008695
10.000000963
10.0000010545
10.0000011442
10.0000012325
10.0000013193
10.0000014049
10.000001489
10.0000015721
10.0000016535
10.0000017343
10.0000018126
10.0000018911
10.0000019654
10.0000020423
10.0000021111
10.0000021876
10.0000022483
10.0000023281
10.0000023754
10.0000024658
10.0000024895
10.0000026057
10.0000025856
10.0000027563
10.000002655
10.0000029319
10.0000026835
10.0000031521
10.0000026515
10.0000034393
10.00000254
10.0000038053
10.0000023488
10.0000042254
10.0000021265
10.0000046068
10.0000019932
10.0000047876
10.0000021046
10.0000046273
10.0000025153
10.0000041748
10.0000030356
10.0000037086
10.0000033478
10.0000034458
10.0000033549
10.000003285
10.0000031885
10.0000030669
10.000002925
10.0000027834
10.0000026492
10.0000025362
10.0000024695
10.0000024644
10.0000025191
10.0000026201
10.0000027498
10.0000028922
10.0000030344
10.0000031681
10.0000032878
10.0000033911
10.0000034768
10.0000035456
10.0000035992
10.0000036398
10.00000367
10.0000036924
10.0000037093
10.0000037224
10.0000037331
10.0000037423
10.0000037508
10.0000037594
10.0000037686
10.000003779
10.0000037911
10.0000038055
10.0000038224
10.0000038421
10.000003865
10.000003891
10.0000039199
10.0000039516
10.0000039856
10.0000040215
10.000004059
10.0000040976
10.0000041369
10.0000041764
10.0000042158
10.0000042548
10.0000042929
10.00000433
10.0000043656
10.0000043999
10.0000044324
10.0000044632
10.0000044917
10.0000045187
10.0000045431
10.0000045661
10.0000045861
10.0000046053
10.0000046209
10.0000046367
10.0000046482
10.0000046613
10.0000046689
10.0000046799
10.0000046841
10.0000046936
10.0000046941
10.0000047016
10.0000046977
10.0000047032
10.0000046959
10.0000000082
10.0000001351
10.0000002546
10.0000003692
10.0000004818
10.0000005911
10.0000006971
10.0000007997
10.0000008995
10.0000009967
10.0000010917
10.0000011846
10.0000012759
10.0000013654
10.0000014536
10.0000015401
10.0000016258
10.0000017093
10.0000017927
10.0000018728
10.0000019542
10.00000203
10.0000021103
10.00000218
10.0000022613
10.0000023211
10.0000024085
10.0000024511
10.0000025553
10.0000025658
10.0000027089
10.000002657
10.000002883
10.000002709
10.0000031024
10.0000026932
10.0000034079
10.0000025625
10.0000038591
10.0000022515
10.0000045249
10.0000016973
10.0000054424
10.0000009038
10.0000065253
10.0000000504
10.0000074524
9.99999957573
10.0000076801
10.0000000075
10.0000068209
10.0000013947
10.000005263
10.0000028852
10.0000040542
10.0000035261
10.0000035802
10.0000034503
10.0000032847
10.0000031154
10.000002954
10.0000027432
10.0000025512
10.0000024689
10.0000024807
10.0000025268
10.0000025853
10.0000026757
10.0000028155
10.0000029989
10.0000031998
10.0000033898
10.0000035502
10.0000036736
10.0000037616
10.0000038198
10.0000038548
10.0000038727
10.0000038792
10.0000038786
10.0000038741
10.0000038677
10.0000038607
10.000003854
10.0000038483
10.0000038443
10.0000038426
10.0000038436
10.0000038479
10.0000038555
10.0000038667
10.0000038815
10.0000038999
10.0000039217
10.0000039466
10.000003974
10.0000040036
10.0000040349
10.0000040674
10.0000041005
10.0000041341
10.0000041674
10.0000042005
10.0000042326
10.000004264
10.0000042937
10.0000043225
10.0000043491
10.0000043749
10.0000043976
10.0000044201
10.0000044385
10.0000044581
10.0000044718
10.0000044888
10.0000044974
10.0000045125
10.0000045153
10.0000045295
10.0000045254
10.0000045396
10.0000045267
10.0000045413
10.0000045164
10.0000045306
10.0000044881
10.0000045005
10.0000044348
10.0000000115
10.0000001442
10.000000271
10.0000003883
10.0000005024
10.0000006135
10.0000007218
10.0000008271
10.0000009299
10.0000010301
10.0000011282
10.0000012242
10.0000013184
10.0000014108
10.0000015018
10.000001591
10.0000016794
10.0000017654
10.0000018516
10.0000019341
10.0000020184
10.0000020963
10.00000218
10.0000022513
10.0000023369
10.0000023974
10.0000024907
10.0000025319
10.0000026455
10.0000026497
10.0000028101
10.0000027404
10.0000030026
10.0000027823
10.0000032575
10.0000027321
10.0000036393
10.0000025082
10.0000042599
10.0000019708
10.0000052938
10.0000009165
10.0000069582
9.9999991368
10.0000093901
9.99999662519
10.0000123369
9.99999398305
10.0000147338
9.99999271516
10.0000147741
9.99999450982
10.0000114608
9.99999897957
10.0000068278
10.0000027091
10.0000042794
10.0000036434
10.0000035014
10.0000034362
10.0000031215
10.000002509