/*--------------------------------*- C++ -*----------------------------------*\
  =========                 |
  \\      /  F ield         | OpenFOAM: The Open Source CFD Toolbox
   \\    /   O peration     | Website:  https://openfoam.org
    \\  /    A nd           | Version:  7
     \\/     M anipulation  |
\*---------------------------------------------------------------------------*/
FoamFile
{
    version     2.0;
    format      ascii;
    class       volScalarField;
    location    "3600";
    object      p;
}
// * * * * * * * * * * * * * * * * * * * * * * * * * * * * * * * * * * * * * //

dimensions      [0 2 -2 0 0 0 0];

internalField   nonuniform List<scalar> 
8192
(
0.000537764925141
0.000366205885817
0.000280565928289
0.000236419583793
0.000211359087538
0.000196087152391
0.000186187553632
0.000179416553148
0.000174567538725
0.000170956457249
0.000168175762922
0.000165971279197
0.000164177845308
0.000162684227325
0.000161413177664
0.000160309644191
0.000159333532361
0.000158455105831
0.000157651969897
0.000156907036039
0.000156207112896
0.00015554190856
0.000154903309425
0.000154284849358
0.00015368131209
0.000153088428625
0.000152502642968
0.000151920927671
0.00015134063547
0.000150759377262
0.000150174918503
0.000149585088469
0.000148987697804
0.000148380460573
0.000147760917082
0.000147126354943
0.000146473725591
0.000145799554405
0.000145099842266
0.000144369957499
0.000143604517167
0.000142797258292
0.000141940900343
0.000141027003022
0.000140045825404
0.000138986196893
0.000137835414213
0.000136579184893
0.000135201642769
0.00013368546748
0.000132012143263
0.000130162393957
0.00012811682557
0.00012585679592
0.000123365507681
0.000120629289752
0.000117638990889
0.000114391367833
0.000110890312453
0.000107147743007
0.000103183990703
9.90275562704e-05
9.47141894268e-05
9.02853505482e-05
8.57862211054e-05
8.12635098039e-05
7.67633241127e-05
7.23293359111e-05
6.80013695831e-05
6.38144395936e-05
5.97981824761e-05
5.59765857672e-05
5.2367918323e-05
4.89847991393e-05
4.5834379883e-05
4.291864596e-05
4.02348493997e-05
3.77760785054e-05
3.5531947854e-05
3.34893712578e-05
3.16333645718e-05
2.99478222939e-05
2.84162182295e-05
2.70221957242e-05
2.57500294521e-05
2.45849573794e-05
2.35133929667e-05
2.252303582e-05
2.16029015587e-05
2.07432922163e-05
1.99357257497e-05
1.91728406139e-05
1.84482873515e-05
1.77566164284e-05
1.70931682623e-05
1.64539696489e-05
1.58356386315e-05
1.52352990819e-05
1.46505049964e-05
1.40791743608e-05
1.3519531735e-05
1.29700588842e-05
1.24294523865e-05
1.18965874529e-05
1.13704869534e-05
1.08502949732e-05
1.03352540615e-05
9.82468563926e-06
9.31797292639e-06
8.81454601404e-06
8.31386865862e-06
7.81542662361e-06
7.31871743958e-06
6.82324175315e-06
6.32849668213e-06
5.83397213099e-06
5.33915177751e-06
4.84352176099e-06
4.34659234407e-06
3.84794175205e-06
3.34729865619e-06
2.84469345917e-06
2.34073589693e-06
1.83713344045e-06
1.33769399288e-06
8.50376787453e-07
3.92332104719e-07
4.89637948493e-08
0.000388860606269
0.000325337256672
0.000275627934122
0.000242949953617
0.000220999556068
0.000205788985501
0.000194941190695
0.000186992287294
0.000181017573221
0.000176418908023
0.000172800276326
0.000169893425068
0.00016751259888
0.000165526470984
0.000163840396278
0.000162384963543
0.000161108459658
0.000159971808503
0.000158945104904
0.00015800519631
0.000157133965354
0.000156317089829
0.00015554313323
0.000154802867959
0.000154088764447
0.000153394600297
0.00015271515692
0.000152045980703
0.000151383191712
0.000150723327701
0.000150063213681
0.000149399850044
0.000148730313972
0.000148051669491
0.000147360882106
0.000146654735248
0.000145929745808
0.000145182076877
0.000144407445892
0.000143601027301
0.000142757349173
0.00014187018455
0.000140932439138
0.000139936039175
0.000138871825099
0.000137729460029
0.000136497365208
0.000135162699135
0.000133711401026
0.000132128323813
0.00013039748409
0.000128502457051
0.000126426939514
0.000124155494185
0.00012167446966
0.000118973065432
0.000116044478834
0.000112887037785
0.00010950519369
0.00010591023351
0.000102120575103
9.81615443925e-05
9.40645957031e-05
8.98660225552e-05
8.56052943152e-05
8.13232204676e-05
7.70601644569e-05
7.28544972614e-05
6.87413944325e-05
6.47519988209e-05
6.09129070022e-05
5.72459011405e-05
5.37678513673e-05
5.04907402395e-05
4.74217911983e-05
4.45637054665e-05
4.19150175062e-05
3.94705711863e-05
3.72221011293e-05
3.51588865186e-05
3.32684324028e-05
3.15371315102e-05
2.99508653055e-05
2.84955154995e-05
2.71573707935e-05
2.59234269598e-05
2.47815877256e-05
2.37207804521e-05
2.27310029265e-05
2.18033181373e-05
2.09298120328e-05
2.01035272723e-05
1.93183830118e-05
1.8569088597e-05
1.7851056522e-05
1.71603185273e-05
1.64934470153e-05
1.58474832006e-05
1.52198723975e-05
1.46084065924e-05
1.40111738793e-05
1.34265143623e-05
1.28529818198e-05
1.22893105782e-05
1.17343868717e-05
1.11872241638e-05
1.06469418037e-05
1.01127465972e-05
9.58391681416e-06
9.05978835396e-06
8.53974278298e-06
8.02319716473e-06
7.50959568034e-06
6.99840330464e-06
6.48910205056e-06
5.98119076358e-06
5.4741900782e-06
4.96765516446e-06
4.46120045611e-06
3.95454301987e-06
3.44757521602e-06
2.94048375668e-06
2.43394309981e-06
1.929429867e-06
1.42973823263e-06
9.39861547691e-07
4.68156657936e-07
8.23740067987e-08
0.000305937806083
0.000283256679636
0.000257244424502
0.000235984134167
0.000219840680584
0.000207506792943
0.000197964179452
0.000190485934925
0.000184550461076
0.000179778774531
0.000175892668753
0.000172686116366
0.000170005259709
0.000167734222442
0.000165784974407
0.000164090052735
0.000162597305336
0.0001612660707
0.000160064380985
0.000158966897607
0.000157953374026
0.000157007500745
0.000156116029256
0.000155268101393
0.000154454730817
0.000153668398294
0.000152902732268
0.00015215225403
0.000151412171578
0.000150678210622
0.00014994647296
0.000149213315506
0.000148475244916
0.000147728823037
0.000146970579083
0.000146196925998
0.000145404078353
0.000144587970091
0.000143744170406
0.000142867797088
0.000141953426762
0.000140995002821
0.000139985742352
0.000138918045365
0.000137783410855
0.00013657236721
0.000135274426701
0.000133878077797
0.000132370831999
0.00013073934605
0.000128969642251
0.000127047450833
0.000124958694667
0.00012269012915
0.000120230134668
0.000117569638028
0.000114703110804
0.000111629563087
0.000108353423089
0.000104885177055
0.000101241644696
9.74457932275e-05
9.35260477258e-05
8.9515135315e-05
8.5448585613e-05
8.13630761676e-05
7.72948329239e-05
7.32782665544e-05
6.9344931995e-05
6.55228204747e-05
6.18359365866e-05
5.83040790676e-05
5.49427543084e-05
5.17631820595e-05
4.87723837064e-05
4.59733647647e-05
4.33654064605e-05
4.09444714549e-05
3.87037098321e-05
3.66340343979e-05
3.47247226367e-05
3.29640016941e-05
3.13395788369e-05
2.98390922488e-05
2.84504695297e-05
2.71621933333e-05
2.59634813759e-05
2.4844393486e-05
2.3795879806e-05
2.28097845784e-05
2.187881802e-05
2.09965071783e-05
2.01571340208e-05
1.93556673663e-05
1.85876930894e-05
1.78493459609e-05
1.71372449956e-05
1.64484336766e-05
1.57803254839e-05
1.51306550373e-05
1.44974345879e-05
1.38789156838e-05
1.32735554826e-05
1.26799873671e-05
1.2096995299e-05
1.15234915524e-05
1.09584973315e-05
1.0401125973e-05
9.85056835841e-06
9.30608033755e-06
8.76697194842e-06
8.23259838789e-06
7.70235274378e-06
7.17566069475e-06
6.6519775588e-06
6.13078836057e-06
5.61161197283e-06
5.09401090746e-06
4.57760911305e-06
4.06212116312e-06
3.54739780444e-06
3.03349503306e-06
2.52077739273e-06
2.01007114532e-06
1.5028884827e-06
1.00169806778e-06
5.09732428743e-07
9.15245603573e-08
0.000261422957743
0.000253012499241
0.000238794437501
0.000224975969552
0.000213522522818
0.000204224534182
0.000196630123245
0.000190371588714
0.000185171095347
0.000180816204672
0.000177141161402
0.000174014830609
0.000171332656729
0.000169010913623
0.000166982358476
0.000165192844089
0.000163598643115
0.000162164326013
0.000160861077278
0.000159665359774
0.000158557854917
0.000157522620767
0.000156546421692
0.000155618192965
0.000154728611282
0.000153869748501
0.000153034790649
0.00015221780821
0.000151413566514
0.00015061736776
0.000149824916634
0.000149032204531
0.000148235408692
0.000147430801668
0.000146614667744
0.000145783224124
0.000144932544694
0.000144058484731
0.000143156605147
0.000142222095478
0.000141249695125
0.000140233613221
0.000139167448114
0.000138044108811
0.000136855741992
0.000135593670364
0.000134248350351
0.000132809360362
0.000131265434049
0.000129604556823
0.000127814146793
0.000125881343249
0.000123793424404
0.00012153837048
0.000119105575654
0.000116486692848
0.000113676568294
0.000110674192145
0.000107483561332
0.000104114329909
0.000100582117697
9.6908369903e-05
9.31197132446e-05
8.9246837021e-05
8.5323022907e-05
8.13825234767e-05
7.74590166822e-05
7.35843314234e-05
6.97875215555e-05
6.60942778877e-05
6.25266128477e-05
5.91027162736e-05
5.58369042892e-05
5.27396237834e-05
4.98175132147e-05
4.70735431807e-05
4.45072618815e-05
4.2115156218e-05
3.98911164857e-05
3.78269722042e-05
3.59130544606e-05
3.41387396406e-05
3.24929375649e-05
3.09645005949e-05
2.95425438342e-05
2.82166781144e-05
2.69771647868e-05
2.58150054523e-05
2.47219805721e-05
2.36906502723e-05
2.27143286476e-05
2.17870408964e-05
2.09034703275e-05
2.00589005912e-05
1.92491567816e-05
1.84705480062e-05
1.77198129503e-05
1.69940694316e-05
1.62907683273e-05
1.56076520495e-05
1.49427174105e-05
1.42941826913e-05
1.3660458545e-05
1.30401224293e-05
1.24318961607e-05
1.18346262806e-05
1.12472668685e-05
1.06688645439e-05
1.00985453735e-05
9.5355035036e-06
8.97899134113e-06
8.42831121056e-06
7.88280845003e-06
7.34186602766e-06
6.80490084548e-06
6.27136205763e-06
5.74073190307e-06
5.21252981294e-06
4.68632090843e-06
4.1617305328e-06
3.6384672973e-06
3.11635841552e-06
2.59540292991e-06
2.07584926404e-06
1.55829147163e-06
1.04368750665e-06
5.32768233045e-07
9.29769970689e-08
0.000233847818848
0.000231845508738
0.000224012870571
0.000214789648416
0.000206481491199
0.000199426286334
0.000193467385657
0.000188399643403
0.000184054775318
0.000180303084898
0.000177043246899
0.000174193943815
0.000171688490785
0.000169471472163
0.000167496517709
0.000165724702806
0.000164123307176
0.000162664802814
0.000161326007642
0.000160087370922
0.00015893236894
0.000157846994873
0.000156819329197
0.000155839178706
0.000154897773439
0.000153987512175
0.000153101748262
0.000152234608799
0.000151380841061
0.000150535681641
0.000149694742032
0.000148853908556
0.000148009254394
0.000147156959654
0.000146293237073
0.000145414261831
0.000144516103677
0.00014359466003
0.000142645588814
0.000141664240219
0.000140645586809
0.000139584152007
0.000138473937441
0.000137308350713
0.000136080136159
0.000134781312999
0.00013340312733
0.000131936027422
0.000130369675141
0.000128693010539
0.000126894390565
0.000124961826281
0.000122883343668
0.00012064748971
0.000118243994901
0.000115664584578
0.000112903903639
0.000109960485383
0.000106837660031
0.000103544270563
0.000100095051762
9.65105444002e-05
9.28164694412e-05
8.90425801237e-05
8.52211254152e-05
8.1385155127e-05
7.75669341508e-05
7.37966950225e-05
7.01017987162e-05
6.65062658165e-05
6.30305830952e-05
5.96916507661e-05
5.65027781173e-05
5.34736923342e-05
5.06105745849e-05
4.79161635859e-05
4.53899658782e-05
4.30285911516e-05
4.08262012426e-05
3.87750359246e-05
3.68659648641e-05
3.50890158638e-05
3.34338406795e-05
3.18900960373e-05
3.04477329426e-05
2.90971993263e-05
2.78295679561e-05
2.66366045341e-05
2.55107907086e-05
2.44453151414e-05
2.34340432712e-05
2.24714740816e-05
2.1552689902e-05
2.06733035753e-05
1.98294058441e-05
1.90175148541e-05
1.82345288374e-05
1.74776825919e-05
1.67445079373e-05
1.60327981614e-05
1.53405762594e-05
1.46660667368e-05
1.40076706513e-05
1.33639436003e-05
1.27335763197e-05
1.2115377613e-05
1.15082593193e-05
1.09112230842e-05
1.03233487037e-05
9.74378386318e-06
9.17173511049e-06
8.60645995413e-06
8.04726000487e-06
7.49347513536e-06
6.94447868573e-06
6.39967381925e-06
5.85849124347e-06
5.32038866792e-06
4.78485263471e-06
4.25140375289e-06
3.71960699134e-06
3.18908939143e-06
2.65956758619e-06
2.13088283578e-06
1.60301619555e-06
1.07595745994e-06
5.49040039536e-07
9.3192100013e-08
0.00021554299679
0.000216394141483
0.000212311851797
0.000206143883029
0.000200021502298
0.000194566230592
0.000189828350387
0.000185712713321
0.00018211248248
0.00017893895345
0.000176122576419
0.000173608405373
0.000171351903679
0.000169316047827
0.000167469479369
0.000165785324289
0.000164240400191
0.000162814642095
0.000161490653682
0.000160253335586
0.000159089566359
0.000157987923783
0.000156938439826
0.000155932385065
0.000154962079278
0.000154020725401
0.000153102264072
0.000152201246195
0.000151312720998
0.000150432138167
0.000149555258734
0.000148678075678
0.00014779674326
0.000146907511161
0.000146006662338
0.000145090453559
0.000144155057311
0.000143196503979
0.000142210623234
0.000141192983831
0.000140138831117
0.000139043021948
0.000137899957058
0.000136703511645
0.000135446965846
0.000134122938252
0.000132723327567
0.000131239270399
0.000129661126803
0.000127978509932
0.000126180381305
0.000124255238377
0.000122191424237
0.000119977588397
0.000117603319142
0.000115059949598
0.000112341509907
0.00010944575915
0.000106375188201
0.000103137847397
9.97478315146e-05
9.62252628202e-05
9.25956661777e-05
8.88887382501e-05
8.51366601901e-05
8.13722336561e-05
7.76271737383e-05
7.39308429035e-05
7.03094892318e-05
6.67859114693e-05
6.33794108501e-05
6.0105847474e-05
5.69776892638e-05
5.40040223307e-05
5.11905559441e-05
4.85396855804e-05
4.60506721278e-05
4.37199647833e-05
4.15416553016e-05
3.95080184994e-05
3.76100780948e-05
3.58381399596e-05
3.41822506622e-05
3.26325598666e-05
3.11795834465e-05
2.98143769166e-05
2.85286351471e-05
2.73147360091e-05
2.61657441122e-05
2.50753880792e-05
2.40380216224e-05
2.3048575925e-05
2.21025084573e-05
2.11957516483e-05
2.03246634938e-05
1.9485981339e-05
1.86767794136e-05
1.78944303499e-05
1.7136570618e-05
1.64010697057e-05
1.56860027498e-05
1.49896263229e-05
1.43103570364e-05
1.36467526611e-05
1.2997495452e-05
1.23613774155e-05
1.17372872572e-05
1.11241987968e-05
1.05211606395e-05
9.92728693819e-06
9.34174908515e-06
8.76376821131e-06
8.19260838065e-06
7.62757040855e-06
7.06798625825e-06
6.51321403108e-06
5.96263363958e-06
5.41564338236e-06
4.87165782352e-06
4.33010762809e-06
3.79044221491e-06
3.25213582614e-06
2.7146953643e-06
2.17765934043e-06
1.64054811139e-06
1.10264950691e-06
5.62406060771e-07
9.36531982298e-08
0.000202700306978
0.00020477133377
0.000202927898282
0.000198873484097
0.000194356741016
0.000190093619463
0.000186272927381
0.000182888701421
0.00017988332955
0.000177196206832
0.000174776192123
0.000172582410691
0.000170582200455
0.000168748941288
0.000167060407989
0.000165497647734
0.000164044240327
0.000162685806369
0.000161409666884
0.000160204593163
0.000159060610534
0.000157968835536
0.000156921335244
0.000155911002696
0.000154931445119
0.000153976883019
0.000153042058842
0.000152122154181
0.00015121271453
0.000150309581991
0.000149408830545
0.000148506707237
0.000147599579375
0.000146683883274
0.000145756074874
0.00014481258148
0.000143849753692
0.000142863816616
0.000141850819462
0.000140806582694
0.000139726641943
0.000138606188051
0.000137440002854
0.000136222390764
0.000134947106926
0.000133607283929
0.00013219536086
0.00013070302126
0.000129121150462
0.000127439828086
0.000125648378033
0.000123735505521
0.000121689556825
0.000119498939558
0.000117152735514
0.000114641520123
0.000111958370233
0.000109099996681
0.000106067886047
0.000102869286797
9.95178407887e-05
9.6033658052e-05
9.24426838521e-05
8.87753342857e-05
8.50645699802e-05
8.13437607393e-05
7.76447746408e-05
7.39966566764e-05
7.04249526707e-05
6.69515423544e-05
6.35947736564e-05
6.0369651182e-05
5.72879426134e-05
5.43581806042e-05
5.15856214124e-05
4.8972255972e-05
4.65169564141e-05
4.4215796576e-05
4.20625307755e-05
4.00491725291e-05
3.81665967436e-05
3.64050957596e-05
3.47548423522e-05
3.32062396544e-05
3.17501600521e-05
3.0378088749e-05
2.90821932544e-05
2.7855339965e-05
2.66910758895e-05
2.5583589452e-05
2.45276603483e-05
2.35186051618e-05
2.25522229836e-05
2.16247435355e-05
2.07327791254e-05
1.98732810062e-05
1.90435002468e-05
1.82409529526e-05
1.74633895258e-05
1.67087675902e-05
1.59752281876e-05
1.52610748582e-05
1.45647552455e-05
1.38848448922e-05
1.32200329315e-05
1.25691094036e-05
1.19309539658e-05
1.13045257819e-05
1.06888544082e-05
1.00830315091e-05
9.48620325667e-06
8.89756328264e-06
8.3163460713e-06
7.7418206977e-06
7.173284845e-06
6.61005906676e-06
6.0514813155e-06
5.49690182255e-06
4.94567848398e-06
4.39717289825e-06
3.85074689875e-06
3.30575817942e-06
2.76154975008e-06
2.21741737706e-06
1.67251374372e-06
1.12560118931e-06
5.7453373252e-07
9.50949902912e-08
0.000193271819206
0.000195800941398
0.000195302177849
0.000192728762447
0.00018942777453
0.000186092689314
0.000182988024806
0.000180175507003
0.000177640430174
0.000175346975064
0.000173258602882
0.00017134395133
0.000169577460377
0.000167938440945
0.000166409929273
0.00016497773073
0.000163629716802
0.000162355334624
0.000161145270063
0.000159991213918
0.000158885694644
0.000157821953159
0.00015679384415
0.000155795754369
0.000154822532162
0.000153869424868
0.000152932022046
0.000152006203337
0.000151088090139
0.000150174001546
0.000149260409705
0.000148343898117
0.000147421124408
0.00014648878213
0.000145543563043
0.000144582119223
0.000143601024288
0.000142596732998
0.000141565538392
0.000140503525607
0.000139406521456
0.00013827003884
0.000137089215154
0.000135858744069
0.000134572800552
0.00013322495991
0.000131808113233
0.000130314384262
0.000128735056755
0.000127060527414
0.000125280307404
0.000123383105169
0.000121357032862
0.000119189985035
0.000116870235771
0.000114387283568
0.000111732937642
0.000108902586098
0.000105896522148
0.00010272114066
9.93897664469e-05
9.59228557318e-05
9.23473552458e-05
8.86951520741e-05
8.50008054389e-05
8.12990170045e-05
7.76224209991e-05
7.4000175673e-05
7.04574012249e-05
6.70152395435e-05
6.36912260633e-05
6.04996401374e-05
5.7451670224e-05
5.4555388948e-05
5.18156403647e-05
4.92339794357e-05
4.68087794533e-05
4.45355589796e-05
4.24075055223e-05
4.0416117579e-05
3.85518661689e-05
3.68047903437e-05
3.51649739062e-05
3.3622886014e-05
3.2169595035e-05
3.07968795417e-05
2.94972643379e-05
2.82640070058e-05
2.70910551254e-05
2.59729886335e-05
2.490495685e-05
2.38826159976e-05
2.29020704338e-05
2.19598191498e-05
2.10527080395e-05
2.01778878736e-05
1.93327775813e-05
1.85150323228e-05
1.77225157785e-05
1.69532761096e-05
1.62055250734e-05
1.54776198421e-05
1.47680471149e-05
1.40754091804e-05
1.33984116187e-05
1.2735852386e-05
1.20866120518e-05
1.14496449924e-05
1.08239713665e-05
1.02086697215e-05
9.60287008982e-06
9.00574745651e-06
8.4165154819e-06
7.83442038505e-06
7.25873489742e-06
6.6887522176e-06
6.12377989961e-06
5.56313360047e-06
5.00613052449e-06
4.45208213376e-06
3.90028493352e-06
3.3500062349e-06
2.80045726471e-06
2.25073608405e-06
1.69970411162e-06
1.14573660908e-06
5.86297093169e-07
9.79417730181e-08
0.000186089257441
0.00018872426113
0.000189032432679
0.000187501146429
0.000185131782138
0.000182538464021
0.000180013021998
0.000177662185402
0.000175506305043
0.000173532092847
0.000171716614945
0.000170036817023
0.000168472590826
0.000167007244654
0.000165627083471
0.000164320792302
0.000163078871883
0.000161893192328
0.000160756662358
0.000159662991263
0.000158606518946
0.000157582093511
0.000156584981098
0.000155610797168
0.000154655451983
0.000153715105421
0.000152786128036
0.00015186506632
0.0001509486113
0.00015003356915
0.000149116831081
0.00014819534424
0.000147266086159
0.000146326037035
0.000145372151579
0.000144401329835
0.000143410386396
0.000142396017298
0.000141354763821
0.000140282972241
0.000139176748485
0.000138031906463
0.000136843908791
0.00013560779859
0.000134318121277
0.000132968835842
0.000131553216423
0.000130063747335
0.000128492018901
0.000126828637892
0.000125063175927
0.000123184191606
0.000121179376137
0.000119035883812
0.000116740911246
0.000114282574276
0.000111651092383
0.00010884022729
0.000105848843199
0.000102682374316
9.93539139292e-05
9.58845944505e-05
9.23029513112e-05
8.8643131413e-05
8.49421547559e-05
8.12368312695e-05
7.75611325805e-05
7.39446675321e-05
7.04122890108e-05
6.69844717147e-05
6.36779991859e-05
6.05065130233e-05
5.74807331869e-05
5.46083765801e-05
5.18939357436e-05
4.93385178323e-05
4.69399022713e-05
4.46928837094e-05
4.25898649827e-05
4.0621591954e-05
3.87778999513e-05
3.70483653363e-05
3.54228030968e-05
3.3891598188e-05
3.24458905698e-05
3.10776486087e-05
2.97796670197e-05
2.85455197664e-05
2.73694902817e-05
2.62464937583e-05
2.51720003418e-05
2.41419638896e-05
2.31527583407e-05
2.22011221601e-05
2.12841105095e-05
2.03990543847e-05
1.95435258442e-05
1.87153084408e-05
1.79123720527e-05
1.71328513911e-05
1.63750275783e-05
1.5637312266e-05
1.49182338664e-05
1.42164255194e-05
1.35306145008e-05
1.2859612804e-05
1.22023086871e-05
1.15576589934e-05
1.0924682091e-05
1.03024512855e-05
9.69008858646e-06
9.08675870627e-06
8.49166318828e-06
7.90403455579e-06
7.3231303744e-06
6.74822710333e-06
6.17861356952e-06
5.61358380195e-06
5.0524287378e-06
4.49442582383e-06
3.93882447093e-06
3.38482310324e-06
2.83152908887e-06
2.27788470901e-06
1.72253026053e-06
1.16356694554e-06
5.98205069571e-07
1.02474805464e-07
0.000180453945779
0.000183036744582
0.000183825519302
0.000183028431644
0.000181375310854
0.000179382169172
0.000177336324354
0.000175369431083
0.000173527810763
0.000171817482879
0.00017022821277
0.000168744936072
0.000167352604639
0.000166037901151
0.000164789584176
0.000163598303677
0.000162456262485
0.000161356877446
0.000160294492914
0.000159264156204
0.000158261448314
0.00015728235867
0.000156323192875
0.000155380504314
0.000154451042536
0.000153531713227
0.000152619546061
0.000151711667807
0.000150805279964
0.000149897637035
0.000148986025369
0.000148067742626
0.000147140079818
0.000146200301192
0.000145245623241
0.000144273192284
0.000143280060084
0.000142263156772
0.000141219260305
0.000140144961409
0.000139036622796
0.000137890331156
0.00013670184016
0.000135466502478
0.000134179188689
0.000132834191224
0.000131425112266
0.000129944736643
0.000128384894652
0.000126736326711
0.00012498857271
0.000123129924471
0.00012114749894
0.000119027508369
0.000116755813311
0.000114318832902
0.000111704844296
0.000108905627824
0.000105918316735
0.000102747207488
9.94051914414e-05
9.5914389132e-05
9.23055517016e-05
8.86159691903e-05
8.488609589e-05
8.11556978622e-05
7.74606479702e-05
7.38312601995e-05
7.02921588574e-05
6.6863111139e-05
6.35601353283e-05
6.03962920992e-05
5.73819471184e-05
5.45245875924e-05
5.1828439342e-05
4.92941651756e-05
4.69188580277e-05
4.46964125678e-05
4.26182191299e-05
4.06740283112e-05
3.88528123407e-05
3.7143489926e-05
3.55354495518e-05
3.40188681143e-05
3.2584859951e-05
3.12255051242e-05
2.99338031095e-05
2.8703587781e-05
2.75294280295e-05
2.64065286367e-05
2.53306390466e-05
2.42979732125e-05
2.33051411104e-05
2.23490911792e-05
2.14270623805e-05
2.05365444249e-05
1.96752447818e-05
1.88410612481e-05
1.80320590389e-05
1.7246451539e-05
1.64825840129e-05
1.57389197054e-05
1.50140278683e-05
1.4306573346e-05
1.36153074117e-05
1.29390596124e-05
1.22767304144e-05
1.16272844822e-05
1.09897444428e-05
1.03631850114e-05
9.74672736128e-06
9.13953363367e-06
8.5408014762e-06
7.94975849968e-06
7.36565651049e-06
6.78776534166e-06
6.215366005e-06
5.64774272495e-06
5.08417306891e-06
4.52391475976e-06
3.96618652764e-06
3.41013811874e-06
2.85480062634e-06
2.29900221267e-06
1.74122734655e-06
1.17939725601e-06
6.10572403055e-07
1.08883738738e-07
0.000175929674734
0.000178394405982
0.000179464103517
0.000179184353341
0.000178081799125
0.000176576211616
0.000174932380063
0.00017329138437
0.000171716690001
0.000170229631387
0.000168831217953
0.000167513975151
0.000166267813557
0.000165082668524
0.000163949513688
0.00016286061058
0.000161809432831
0.000160790476892
0.000159799055146
0.000158831110111
0.000157883061447
0.000156951685685
0.000156034024081
0.000155127312924
0.000154228930951
0.000153336359408
0.000152447151188
0.000151558906287
0.0001506692534
0.000149775831319
0.000148876272152
0.000147968186205
0.000147049148298
0.00014611668262
0.000145168246643
0.000144201213586
0.00014321285285
0.000142200307701
0.000141160569372
0.000140090446455
0.000138986528235
0.000137845140165
0.00013666228928
0.000135433596851
0.000134154215105
0.000132818724593
0.000131421009135
0.00012995410666
0.000128410037868
0.000126779621666
0.00012505229859
0.000123216002286
0.000121257144532
0.000119160807065
0.000116911253124
0.000114492866515
0.000111891580251
0.000109096766521
0.000106103438833
0.000102914489999
9.95425700512e-05
9.60110834793e-05
9.23536936822e-05
8.86118733609e-05
8.48306731683e-05
8.10537973143e-05
7.73196033251e-05
7.36592765472e-05
7.00971140412e-05
6.66520132846e-05
6.33391427741e-05
6.01710220985e-05
5.71577983144e-05
5.43068925112e-05
5.16223814397e-05
4.91045012519e-05
4.67495574083e-05
4.45503434761e-05
4.24969793205e-05
4.05779536273e-05
3.87811367133e-05
3.70945966944e-05
3.55071503208e-05
3.40086610187e-05
3.25901407333e-05
3.12437227453e-05
2.99625633929e-05
2.874071424e-05
2.75729904719e-05
2.64548492573e-05
2.53822839122e-05
2.43517350715e-05
2.33600177374e-05
2.24042620779e-05
2.14818656516e-05
2.05904548707e-05
1.97278538288e-05
1.88920589397e-05
1.8081218147e-05
1.72936137188e-05
1.65276478602e-05
1.57818305389e-05
1.50547690572e-05
1.43451589981e-05
1.36517762583e-05
1.29734699335e-05
1.23091558719e-05
1.16578107407e-05
1.10184664772e-05
1.03902050124e-05
9.77215316325e-06
9.1634775915e-06
8.56337972307e-06
7.97109049787e-06
7.38586478435e-06
6.80697521861e-06
6.2337050986e-06
5.66533973289e-06
5.10115523355e-06
4.54040302161e-06
3.98228705918e-06
3.42592872549e-06
2.87031098813e-06
2.31418922274e-06
1.755952533e-06
1.19342240236e-06
6.23594048363e-07
1.17286566395e-07
0.000172232992031
0.000174557222121
0.000175784643683
0.0001758691062
0.000175189238541
0.000174079710574
0.000172774539725
0.000171413495224
0.000170069632305
0.000168775455917
0.00016754132165
0.000166366635334
0.000165246075647
0.000164172802319
0.000163139974979
0.000162141378557
0.000161171602862
0.000160226016797
0.000159300661127
0.000158392120464
0.000157497401851
0.000156613830381
0.000155738964056
0.000154870526475
0.000154006354521
0.000153144358026
0.000152282488646
0.000151418715454
0.000150551007588
0.000149677317015
0.00014879556252
0.000147903618011
0.000146999300773
0.000146080359195
0.000145144459752
0.000144189172716
0.000143211956001
0.000142210136426
0.000141180887492
0.000140121202535
0.000139027861713
0.000137897390835
0.000136726009387
0.000135509564357
0.000134243445638
0.000132922477979
0.00013154078407
0.000130091614019
0.00012856713922
0.000126958215407
0.000125254132753
0.000123442393072
0.000121508586709
0.000119436481233
0.000117208468043
0.000114806518302
0.000112213751636
0.000109416611922
0.00010640749361
0.000103187506532
9.97689285072e-05
9.6176719371e-05
9.24482483236e-05
8.86304407899e-05
8.47743932092e-05
8.09289410435e-05
7.71355525129e-05
7.34263388568e-05
6.98249976918e-05
6.63492519235e-05
6.30132662132e-05
5.98290593072e-05
5.68067402521e-05
5.39538860734e-05
5.12745871982e-05
4.87686851128e-05
4.64315764779e-05
4.42547075528e-05
4.22266174333e-05
4.03342227329e-05
3.85640269118e-05
3.69030463257e-05
3.53393859297e-05
3.38625030136e-05
3.24632457924e-05
3.11337572981e-05
2.98673158718e-05
2.86581591524e-05
2.7501317725e-05
2.63924702312e-05
2.53278231205e-05
2.43040137472e-05
2.33180336195e-05
2.23671681476e-05
2.14489494662e-05
2.05611194135e-05
1.97016003048e-05
1.88684716548e-05
1.80599514241e-05
1.72743807135e-05
1.65102110871e-05
1.5765993913e-05
1.50403712515e-05
1.43320679417e-05
1.36398846115e-05
1.29626914049e-05
1.22994222569e-05
1.16490695872e-05
1.10106792952e-05
1.03833459654e-05
9.76620818304e-06
9.15844387112e-06
8.55926553363e-06
7.96791526991e-06
7.38365936092e-06
6.80578214407e-06
6.23357872215e-06
5.66634579374e-06
5.10336942935e-06
4.54390788347e-06
3.98716631588e-06
3.432258455e-06
2.87814764028e-06
2.32355679801e-06
1.76683542254e-06
1.20577543957e-06
6.37380937382e-07
1.27737881028e-07
0.000169172701249
0.000171353904192
0.000172662415727
0.000173002593804
0.000172646741626
0.000171858416203
0.000170838778643
0.000169719596945
0.000168577627863
0.000167452735163
0.000166362551505
0.000165312399909
0.000164301359297
0.000163325717971
0.000162380818736
0.000161461972419
0.000160564857304
0.000159685648636
0.000158821015646
0.000157968060752
0.000157124239864
0.000156287282831
0.000155455122364
0.000154625834125
0.000153797587936
0.00015296860884
0.000152137146342
0.000151301450187
0.000150459752709
0.000149610252426
0.000148751097405
0.00014788037521
0.000146996101832
0.000146096210807
0.000145178541861
0.000144240828573
0.000143280684445
0.000142295586677
0.000141282856739
0.000140239636562
0.000139162858718
0.000138049208398
0.000136895074204
0.0001356964837
0.000134449018475
0.00013314770203
0.000131786852596
0.00013035989254
0.000128859107631
0.00012727535521
0.00012559773361
0.000123813250223
0.000121906565975
0.000119859948331
0.000117653619201
0.00011526670635
0.000112678958639
0.000109873252269
0.000106838723938
0.000103574175835
0.00010009125635
9.64167044067e-05
9.25925096625e-05
8.86726471548e-05
8.4716132822e-05
8.07784417449e-05
7.69048421651e-05
7.3128267391e-05
6.94713110889e-05
6.59500445903e-05
6.25774090309e-05
5.9364987156e-05
5.63231060912e-05
5.34598056988e-05
5.07794127917e-05
4.82814195326e-05
4.59601555799e-05
4.38054022955e-05
4.18037277623e-05
3.99401003761e-05
3.81993505318e-05
3.65672243601e-05
3.50309746719e-05
3.35795687334e-05
3.22036415536e-05
3.08953139316e-05
2.9647961025e-05
2.84559825326e-05
2.73145993727e-05
2.62196852405e-05
2.51676325594e-05
2.41552484039e-05
2.31796748318e-05
2.2238328289e-05
2.13288535353e-05
2.04490884444e-05
1.95970368698e-05
1.87708474621e-05
1.79687968773e-05
1.71892762251e-05
1.64307799236e-05
1.56918963455e-05
1.4971299813e-05