/*--------------------------------*- C++ -*----------------------------------*\
  =========                 |
  \\      /  F ield         | OpenFOAM: The Open Source CFD Toolbox
   \\    /   O peration     | Website:  https://openfoam.org
    \\  /    A nd           | Version:  7
     \\/     M anipulation  |
\*---------------------------------------------------------------------------*/
FoamFile
{
    version     2.0;
    format      ascii;
    class       surfaceScalarField;
    location    "3600";
    object      phi;
}
// * * * * * * * * * * * * * * * * * * * * * * * * * * * * * * * * * * * * * //

dimensions      [0 3 -1 0 0 0 0];

internalField   nonuniform List<scalar> 
16192
(
6.92956013218e-10
2.44543986782e-10
4.93630767028e-10
1.99325244429e-10
3.64899606031e-10
1.28731159046e-10
2.82287480058e-10
8.26121238478e-11
2.27600914155e-10
5.46865635518e-11
1.89901429733e-10
3.7699482004e-11
1.62851278214e-10
2.70501491196e-11
1.4274171706e-10
2.01095588212e-11
1.27341347626e-10
1.5400367172e-11
1.15259715704e-10
1.20816297519e-11
1.05597644156e-10
9.66206946839e-12
9.77522830732e-11
7.84535911519e-12
9.13057276273e-11
6.44655358419e-12
8.59594897958e-11
5.34623610098e-12
8.14947246786e-11
4.46476350803e-12
7.77473226996e-11
3.74740051802e-12
7.45918341836e-11
3.15548718866e-12
7.19307968337e-11
2.66103618425e-12
6.96874625864e-11
2.24333322389e-12
6.78007218872e-11
1.88673984707e-12
6.62214840725e-11
1.57923710948e-12
6.49100458931e-11
1.31143765115e-12
6.38341446623e-11
1.07590085025e-12
6.29674958682e-11
8.66648592933e-13
6.22886793453e-11
6.7881646739e-13
6.17802812109e-11
5.08398257929e-13
6.14282257325e-11
3.52055743367e-13
6.12212510451e-11
2.06975129631e-13
6.11504944295e-11
7.07571945433e-14
6.12091627931e-11
-5.8667608646e-14
6.13922688174e-11
-1.83105135952e-13
6.16964186957e-11
-3.04148812663e-13
6.211964017e-11
-4.23220274097e-13
6.26612422289e-11
-5.41600674555e-13
6.33216976327e-11
-6.60453876548e-13
6.41025416221e-11
-7.80842262455e-13
6.500627909e-11
-9.03735579791e-13
6.60362936578e-11
-1.0300124539e-12
6.71967500021e-11
-1.16045404026e-12
6.84924811474e-11
-1.29572857921e-12
6.99288494736e-11
-1.43636553204e-12
7.15115699281e-11
-1.58271735578e-12
7.32464804048e-11
-1.73490710949e-12
7.51392439559e-11
-1.89275983946e-12
7.71949644807e-11
-2.05571651239e-12
7.94176989401e-11
-2.22273007715e-12
8.18098492782e-11
-2.39214564456e-12
8.43714240419e-11
-2.56156970324e-12
8.70991677183e-11
-2.72773832762e-12
8.99855734359e-11
-2.88640004272e-12
9.30178157143e-11
-3.03223637811e-12
9.61766714588e-11
-3.15884959893e-12
9.94355299732e-11
-3.25885224582e-12
1.02759629178e-10
-3.32409281004e-12
1.06105680337e-10
-3.3460447802e-12
1.09422055215e-10
-3.31636853058e-12
1.12649689455e-10
-3.22762809259e-12
1.15723803644e-10
-3.07410828347e-12
1.18576448339e-10
-2.85263923318e-12
1.21139755647e-10
-2.563302365e-12
1.23349637635e-10
-2.20987780296e-12
1.25149549413e-10
-1.79990844879e-12
1.2649386225e-10
-1.34431061189e-12
1.27350413385e-10
-8.56550092469e-13
1.27701920148e-10
-3.51507103187e-13
1.27546153358e-10
1.55765071505e-13
1.26894992875e-10
6.51157295204e-13
1.25772675939e-10
1.12231240687e-12
1.24213610116e-10
1.55905998197e-12
1.22260087404e-10
1.95351578602e-12
1.19960124796e-10
2.29995470208e-12
1.17365524601e-10
2.59459157816e-12
1.1453014237e-10
2.83537302503e-12
1.11508305704e-10
3.0218271282e-12
1.08353332865e-10
3.15496307172e-12
1.05116143375e-10
3.23717970895e-12
1.01843998128e-10
3.27213551672e-12
9.85794395578e-11
3.26454905753e-12
9.5359504334e-11
3.21992594746e-12
9.22152607165e-11
3.14423469459e-12
8.91716829964e-11
3.04356912932e-12
8.62478368483e-11
2.92383796275e-12
8.34573159984e-11
2.79051301754e-12
8.08088549915e-11
2.64845356849e-12
7.8307038808e-11
2.50180906792e-12
7.59530406039e-11
2.35399143268e-12
7.37453328497e-11
2.20770124907e-12
7.16803359918e-11
2.06499063166e-12
6.97529834189e-11
1.92734655046e-12
6.79571957467e-11
1.79578186559e-12
6.62862653617e-11
1.67092472768e-12
6.47331591906e-11
1.55310067905e-12
6.32907495047e-11
1.44240430378e-12
6.1951984748e-11
1.33875950602e-12
6.0710011014e-11
1.24196857096e-12
5.95582548377e-11
1.15175112697e-12
5.84904755966e-11
1.06777427261e-12
5.75007953204e-11
9.89675417188e-13
5.65837114142e-11
9.17079132527e-13
5.57340974148e-11
8.49609340798e-13
5.49471950325e-11
7.86897821314e-13
5.42186006051e-11
7.28589992512e-13
5.35442476658e-11
6.74348618285e-13
5.29203874061e-11
6.238560781e-13
5.23435677521e-11
5.76815603382e-13
5.18106119516e-11
5.3295190263e-13
5.13185967685e-11
4.92011431903e-13
5.08648305684e-11
4.53762613001e-13
5.04468309398e-11
4.17996201688e-13
5.00623016078e-11
3.84526077835e-13
4.97091078264e-11
3.53190697495e-13
4.93852493689e-11
3.23855551903e-13
4.90888296031e-11
2.96417037365e-13
4.88180187311e-11
2.70808324195e-13
4.85710083279e-11
2.47008036284e-13
4.83459531948e-11
2.25052946696e-13
4.81408946838e-11
2.05056506799e-13
4.79536568274e-11
1.87236031444e-13
4.77817021044e-11
1.71953081698e-13
4.76219261412e-11
1.59774502356e-13
4.74703581817e-11
1.51566688841e-13
4.73217128593e-11
1.48644242446e-13
4.71687045244e-11
1.53007462861e-13
4.70009874733e-11
1.67716388097e-13
4.6803559359e-11
1.97427666698e-13
4.65547290214e-11
2.48830072256e-13
4.62254852977e-11
3.29243569465e-13
4.22376318524e-13
9.53443350821e-10
2.28600634623e-10
8.59688658916e-10
2.93079932273e-10
7.45088412312e-10
2.43331401232e-10
6.41778901482e-10
1.85921629867e-10
5.56390873318e-10
1.40074586667e-10
4.87730181348e-10
1.06360168908e-10
4.32783730693e-10
8.19965947948e-11
3.88606758204e-10
6.42865264681e-11
3.52792078393e-10
5.1215042295e-11
3.23487759568e-10
4.13859440724e-11
2.99297378854e-10
3.38524458705e-11
2.79170450825e-10
2.79722830542e-11
2.62311931421e-10
2.33050691262e-11
2.4811410668e-10
1.95440572365e-11
2.36107137734e-10
1.64717291099e-11
2.2592357369e-10
1.39309615015e-11
2.17272885177e-10
1.1806172925e-11
2.09923073165e-10
1.00108457248e-11
2.03687258894e-10
8.47914532393e-12
1.98413795675e-10
7.160201213e-12
1.93978890664e-10
6.01414057407e-12
1.90281034238e-10
5.00929285352e-12
1.87236745559e-10
4.12018861201e-12
1.84777288357e-10
3.32610519903e-12
1.82846109935e-10
2.60999459315e-12
1.81396826107e-10
1.95768210477e-12
1.80391622238e-10
1.35725992087e-12
1.79799975283e-10
7.9862269962e-13
1.79597624974e-10
2.73108396229e-13
1.79765740353e-10
-2.26781796233e-13
1.80290238834e-10
-7.07602153577e-13
1.8116122498e-10
-1.17513319977e-12
1.82372522501e-10
-1.63451576098e-12
1.83921277161e-10
-2.09035299356e-12
1.85807609881e-10
-2.54678396513e-12
1.88034301938e-10
-3.00753135379e-12
1.9060649352e-10
-3.47592386963e-12
1.9353137747e-10
-3.95489273036e-12
1.96817867498e-10
-4.44694001342e-12
2.00476219188e-10
-4.95407576978e-12
2.04517578221e-10
-5.4777196163e-12
2.08953428452e-10
-6.01856212384e-12
2.13794908367e-10
-6.57638104459e-12
2.19051963611e-10
-7.14980852685e-12
2.24732301764e-10
-7.73604754615e-12
2.30840119805e-10
-8.3305403917e-12
2.37374581431e-10
-8.92659897525e-12
2.44328038182e-10
-9.51501757127e-12
2.5168401199e-10
-1.00837027335e-11
2.59414994977e-10
-1.06173731214e-11
2.6748017006e-10
-1.10974011457e-11
2.75823217329e-10
-1.15018861893e-11
2.84370435041e-10
-1.18060590479e-11
2.9302946611e-10
-1.19831128161e-11
3.01688960262e-10
-1.20055278894e-11
3.10219506072e-10
-1.18469034435e-11
3.18476111602e-10
-1.14842231098e-11
3.26302390536e-10
-1.09003772819e-11
3.33536414944e-10
-1.00866545998e-11
3.40017948567e-10
-9.04482810942e-12
3.45596505933e-10
-7.78842882906e-12
3.50139456714e-10
-6.34285472317e-12
3.53539273547e-10
-4.74412512359e-12
3.55719072483e-10
-3.03634910531e-12
3.56635833327e-10
-1.26827062563e-12
3.56281077032e-10
5.10516077609e-13
3.54679207744e-10
2.25301871509e-12
3.51884077754e-10
3.91743217085e-12
3.4797447537e-10
5.46865001595e-12
3.43049190503e-10
6.87878655529e-12
3.37222128418e-10
8.12700126574e-12
3.30617711148e-10
9.19899231176e-12
3.23366616978e-10
1.00864499573e-11
3.15601815943e-10
1.07866105851e-11
3.07454857126e-10
1.13019042132e-11
2.99052424576e-10
1.16395947648e-11
2.90513250295e-10
1.18112926398e-11
2.81945521993e-10
1.18322607204e-11
2.73444923355e-10
1.1720508536e-11
2.650934024e-10
1.14957402852e-11
2.56958690164e-10
1.11782666817e-11
2.49094516081e-10
1.07879980731e-11
2.41541402669e-10
1.03436131116e-11
2.3432788688e-10
9.86195668144e-12
2.27472005353e-10
9.35767847607e-12
2.20982895545e-10
8.84308964848e-12
2.14862390986e-10
8.3281946515e-12
2.09106523109e-10
7.82084775328e-12
2.03706873133e-10
7.32698609114e-12
1.98651745942e-10
6.85089891663e-12
1.93927157838e-10
6.39550292119e-12
1.89517645525e-10
5.96260330149e-12
1.85406911605e-10
5.5531287056e-12
1.81578327315e-10
5.16733445629e-12
1.78015313722e-10
4.80497297204e-12
1.74701622835e-10
4.4654329866e-12
1.7162153743e-10
4.14785079923e-12
1.6876000678e-10
3.85119736267e-12
1.66102732176e-10
3.5743452009e-12
1.63636214337e-10
3.31611884094e-12
1.61347771899e-10
3.07533211696e-12
1.59225538797e-10
2.85081517944e-12
1.57258446083e-10
2.64143364716e-12
1.5543619286e-10
2.44610187184e-12
1.53749209318e-10
2.2637919781e-12
1.52188614327e-10
2.0935400113e-12
1.50746168824e-10
1.93445034026e-12
1.49414225873e-10
1.78569927583e-12
1.48185677297e-10
1.64653879957e-12
1.47053896469e-10
1.51630124971e-12
1.46012675969e-10
1.39440586527e-12
1.45056158327e-10
1.28036819403e-12
1.4417875712e-10
1.17381357589e-12
1.43375064889e-10
1.07449622224e-12
1.42639743074e-10
9.82325854465e-13
1.41967387862e-10
8.97404497593e-13
1.41352364181e-10
8.20076862389e-13
1.40788598349e-10
7.50998876388e-13
1.40269318547e-10
6.91230238359e-13
1.39786732631e-10
6.42358121254e-13
1.39331638374e-10
6.06659005662e-13
1.38892980913e-10
5.87300127711e-13
1.38457428767e-10
5.88558397768e-13
1.38009190417e-10
6.1595386689e-13
1.3753069092e-10
6.75926578978e-13
1.37005704167e-10
7.7381645052e-13
1.36429675834e-10
9.05271767509e-13
1.02510122376e-12
9.76228890574e-10
1.89871742101e-10
9.62922991711e-10
3.06385825753e-10
9.05856294001e-10
3.00398093396e-10
8.33182695441e-10
2.58595222856e-10
7.5990081753e-10
2.13356458897e-10
6.92432117941e-10
1.73828862838e-10
6.32859316385e-10
1.41569390777e-10
5.81298213583e-10
1.15847623827e-10
5.37075296048e-10
9.54379545204e-11
4.9927643111e-10
7.91848038685e-11
4.66985319872e-10
6.61435521339e-11
4.39375349482e-10
5.55822486748e-11
4.15735183055e-10
4.69452309835e-11
3.95466372744e-10
3.98128632169e-11
3.78070692792e-10
3.38674049607e-11
3.63135029008e-10
2.88666214528e-11
3.50317037774e-10
2.46241605775e-11
3.39332682824e-10
2.09951973835e-11
3.29945842892e-10
1.78659822311e-11
3.2195982218e-10
1.5146219204e-11
3.15210481319e-10
1.27634789859e-11
3.0956069938e-10
1.06590726551e-11
3.04895908477e-10
8.78497764982e-12
3.01120486012e-10
7.10152610896e-12
2.98154829778e-10
5.57564953784e-12
2.95932977703e-10
4.17953319678e-12
2.94400661952e-10
2.88957494564e-12
2.93513711195e-10
1.68557302839e-12
2.93236731535e-10
5.50087873595e-13
2.93542011466e-10
-5.32061617819e-13
2.94408604569e-10
-1.5741949102e-12
2.95821553724e-10
-2.58808171634e-12
2.97771225365e-10
-3.58418652435e-12
3.00252726079e-10
-4.57185252948e-12
3.03265375049e-10
-5.55943150208e-12
3.06812208452e-10
-6.55436299754e-12
3.10899490432e-10
-7.5632038028e-12
3.1553620571e-10
-8.59160558822e-12
3.20733505486e-10
-9.64423703171e-12
3.26504077283e-10
-1.07246443731e-11
3.32861404719e-10
-1.18350434536e-11
3.39818881852e-10
-1.29760351523e-11
3.47388742555e-10
-1.41462371704e-11
3.5558076616e-10
-1.53418269833e-11
3.6440072071e-10
-1.65559964251e-11
3.73848513385e-10
-1.77783267877e-11
3.83916029034e-10
-1.89941078082e-11
3.94584662208e-10
-2.01836433318e-11
4.05822580713e-10
-2.1321613328e-11
4.17581809091e-10
-2.23765930577e-11
4.29795281322e-10
-2.33108645377e-11
4.42374088588e-10
-2.40806842106e-11
4.55205225165e-10
-2.46371861408e-11
4.68150208679e-10
-2.49280866299e-11
4.81044993262e-10
-2.4900302761e-11
4.93701591421e-10
-2.45034919453e-11
5.05911742247e-10
-2.36943646004e-11
5.17452803458e-10
-2.24414296089e-11
5.28095793364e-10
-2.07296364176e-11
5.37615195448e-10
-1.85642231014e-11
5.45799799203e-10
-1.59730268954e-11
5.5246356551e-10
-1.30066169715e-11
5.5745534952e-10
-9.73590709334e-12
5.60666376151e-10
-6.24737586471e-12
5.62034665165e-10
-2.63656218525e-12
5.6154610347e-10
9.99072854605e-13
5.59232418204e-10
4.56669666544e-12
5.55166757021e-10
7.98308390739e-12
5.49457772028e-10
1.11776236039e-11
5.42243048778e-10
1.40934968449e-11
5.33682489094e-10
1.6687546695e-11
5.23951968953e-10
1.89294973313e-11
5.13237359991e-10
2.08010431822e-11
5.01728891752e-10
2.22950628488e-11
4.8961583081e-10
2.34149491298e-11
4.77081527616e-10
2.41738821784e-11
4.64298966808e-10
2.45938380204e-11
4.51427011733e-10
2.4704200925e-11
4.38607526803e-10
2.45399791788e-11
4.25963501917e-10
2.41397515875e-11
4.13598206009e-10
2.35435496668e-11
4.01595298252e-10
2.2790893621e-11
3.90019743206e-10
2.19191565722e-11
3.78919330651e-10
2.09623582867e-11
3.68326586969e-10
1.99504117301e-11
3.58260882467e-10
1.89087842342e-11
3.48730571148e-10
1.78584964514e-11
3.39735041977e-10
1.68163677882e-11
3.31266599884e-10
1.57954193287e-11
3.23312131302e-10
1.48053589193e-11
3.15854535483e-10
1.38530903516e-11
3.08873923967e-10
1.29432066275e-11
3.02348602377e-10
1.20784422431e-11
2.96255857237e-10
1.12600716991e-11
2.90572572745e-10
1.04882496808e-11
2.85275703818e-10
9.76229427275e-12
2.80342629473e-10
9.08091761787e-12
2.75751409089e-10
8.44241037065e-12
2.71480960449e-10
7.84478659784e-12
2.6751117634e-10
7.28589587682e-12
2.63822992953e-10
6.76350859375e-12
2.60398421479e-10
6.27537993938e-12
2.57220551446e-10
5.81929715856e-12
2.54273532958e-10
5.39311406227e-12
2.51542542844e-10
4.99477601657e-12
2.49013738802e-10
4.62233822513e-12
2.46674203992e-10
4.27397956967e-12
2.44511883892e-10
3.94801406177e-12
2.4251551599e-10
3.64290165363e-12
2.40674552348e-10
3.35726012352e-12
2.38979074045e-10
3.08987967823e-12
2.37419695982e-10
2.83974205256e-12
2.35987459606e-10
2.60604603407e-12
2.34673710561e-10
2.38824163466e-12
2.33469957616e-10
2.18607545571e-12
2.32367708923e-10
1.99965013008e-12
2.31358282075e-10
1.82950093725e-12
2.30432586063e-10
1.67669239707e-12
2.29580877888e-10
1.54293621389e-12
2.28792506525e-10
1.43072757482e-12
2.28055678018e-10
1.34348591117e-12
2.27357317032e-10
1.28565982403e-12
2.26683181293e-10
1.26269316999e-12
2.26018537309e-10
1.28059718112e-12
2.25349967092e-10
1.34449635879e-12
2.24669275618e-10
1.45450767946e-12
2.2397977237e-10
1.59477489576e-12
1.70723366491e-12
9.71717105597e-10
1.55654634134e-10
9.86450141961e-10
2.91652783039e-10
9.67619818944e-10
3.192284102e-10
9.26842441603e-10
2.9937259377e-10
8.75980409131e-10
2.64218484753e-10
8.22568184861e-10
2.2724108048e-10
7.70769163443e-10
1.9336840564e-10
7.2262907917e-10
1.63987701653e-10
6.78972279473e-10
1.39094747893e-10
6.39957968658e-10
1.18199108501e-10
6.05405849158e-10
1.00695665607e-10
5.74979925869e-10
8.60081661124e-11
5.48288902628e-10
7.36362485625e-11
5.24938816269e-10
6.31629441219e-11
5.04558881343e-10
5.4247334651e-11
4.86812628878e-10
4.66128689191e-11
4.71401198738e-10
4.00355859616e-11
4.58062629384e-10
3.43337622386e-11
4.46569266894e-10
2.93593404804e-11
4.36724441099e-10
2.4991041028e-11
4.28359009753e-10
2.11289066254e-11
4.21328068455e-10
1.76900105218e-11
4.15507957678e-10
1.46050852611e-11
4.10793609968e-10
1.18158709246e-11
4.07096234411e-10
9.27302245852e-12
4.04341314081e-10
6.9344511538e-12
4.02466882758e-10
4.7640041416e-12
4.01422045324e-10
2.73040858534e-12
4.01165706649e-10
8.06424904399e-13
4.01665476553e-10
-1.03183293066e-12
4.02896719031e-10
-2.80543857842e-12
4.04841719673e-10
-4.53308332356e-12
4.07488945333e-10
-6.23141293769e-12
4.10832370375e-10
-7.91527809986e-12
4.14870844585e-10
-9.59790602432e-12
4.19607478017e-10
-1.12909965025e-11
4.25049016318e-10
-1.30047419361e-11
4.31205178864e-10
-1.47477676926e-11
4.38087928971e-10
-1.65269864126e-11
4.45710643185e-10
-1.83473575302e-11
4.54087142921e-10
-2.02115417806e-11
4.63230549581e-10
-2.21194400004e-11
4.73151921734e-10
-2.40676070804e-11
4.83858633634e-10
-2.60485361572e-11
4.95352457091e-10
-2.80498166508e-11
5.07627317859e-10
-3.00531837722e-11
5.20666713036e-10
-3.20334986435e-11
5.34440802828e-10
-3.39577281943e-11
5.48903228319e-10
-3.57840333153e-11
5.63987761744e-10
-3.74611204004e-11
5.79604964715e-10
-3.89280608879e-11
5.95639113361e-10
-4.01148257184e-11
6.11945736967e-10
-4.09438021627e-11
6.28350197627e-10
-4.13325393133e-11
6.4464778881e-10
-4.11978856889e-11
6.6060582818e-10
-4.0461522888e-11
6.75968135307e-10
-3.90566633083e-11
6.90462103045e-10
-3.69353891233e-11
7.03808286217e-10
-3.4075811832e-11
7.15732067083e-10
-3.04879969541e-11
7.25976559457e-10
-2.62175133495e-11
7.34315564836e-10
-2.13456178494e-11
7.40565193438e-10
-1.59855329552e-11
7.44592815877e-10
-1.0274997583e-11
7.46322365684e-10
-4.36611349096e-12
7.45735619996e-10
1.5858147679e-12
7.42869774032e-10
7.43253662072e-12
7.37812177458e-10
1.30406724231e-11
7.3069332704e-10
1.82964641621e-11
7.21679119335e-10
2.3107693222e-11
7.10963064756e-10
2.74035888035e-11
6.98758807052e-10
3.11337417775e-11
6.85293021683e-10
3.42668148096e-11
6.70798648612e-10
3.6789421998e-11
6.55508434656e-10
3.87051492148e-11
6.39648862351e-10
4.00334408881e-11
6.23434651521e-10
4.08080356788e-11
6.07064082419e-10
4.10747574157e-11
5.90715375607e-10
4.08886740056e-11
5.74544283003e-10
4.03108328896e-11
5.5868292336e-10
3.9404898687e-11
5.43239773398e-10
3.82340336341e-11
5.28300629628e-10
3.68582910136e-11
5.13930302765e-10
3.53326764009e-11
5.00174794089e-10
3.37059121592e-11
4.87063724189e-10
3.20198463344e-11
4.74612823834e-10
3.03093893717e-11
4.62826344724e-10
2.86028397767e-11
4.51699293488e-10
2.69224636867e-11
4.41219432689e-10
2.52852130444e-11
4.31369023424e-10
2.37034930947e-11
4.22126307352e-10
2.21859163084e-11
4.13466740662e-10
2.07380026387e-11
4.05364002011e-10
1.93628041473e-11
3.97790800484e-10
1.80614450797e-11
3.90719511338e-10
1.68335773732e-11
3.84122666062e-10
1.56777569259e-11
3.77973321606e-10
1.45917489515e-11
3.72245330558e-10
1.35727718689e-11
3.66913531436e-10
1.26176893376e-11
3.61953875068e-10
1.17231594259e-11
3.57343500549e-10
1.08857490682e-11
3.5306077158e-10
1.01020208903e-11
3.49085282048e-10
9.36859853085e-12
3.45397837574e-10
8.6822156076e-12
3.41980418386e-10
8.03975272767e-12
3.38816127241e-10
7.43826623203e-12
3.35889125141e-10
6.87501189558e-12
3.33184556363e-10
6.34746638412e-12
3.30688463603e-10
5.85334906332e-12
3.28387693103e-10
5.39064658769e-12
3.262697891e-10
4.95764269921e-12
3.2432287634e-10
4.55295566972e-12
3.22535529185e-10
4.17558589963e-12
3.2089662585e-10
3.82497613283e-12
3.19395187069e-10
3.50108648307e-12
3.18020200238e-10
3.20448556928e-12
3.16760433707e-10
2.93645695625e-12
3.15604252688e-10
2.699115489e-12
3.1453946014e-10
2.49551860699e-12
3.13553206385e-10
2.32973838588e-12
3.12632044362e-10
2.20682080678e-12
3.11762258674e-10
2.13247805297e-12
3.1093066466e-10
2.11219060621e-12
3.10126127324e-10
2.1490333384e-12
3.09341854521e-10
2.23878032719e-12
3.08577076606e-10
2.35955280515e-12
2.45378839635e-12
9.63860600196e-10
1.29294030496e-10
9.87370723493e-10
2.68142652126e-10
9.89060586969e-10
3.17538539203e-10
9.71022312968e-10
3.17410860359e-10
9.4020930366e-10
2.95031486567e-10
9.02675709221e-10
2.6477466744e-10
8.62624021278e-10
2.33420086179e-10
8.22708399692e-10
2.0390331594e-10
7.84490816467e-10
1.77312323933e-10
7.48814463689e-10
1.53875454227e-10
7.16068314818e-10
1.3344180757e-10
6.86363984038e-10
1.15712490149e-10
6.59650361025e-10
1.00349865009e-10
6.35786377991e-10
8.70269207872e-11
6.14586365706e-10
7.54473407739e-11
5.95847759999e-10
6.53514686906e-11
5.79367579786e-10
5.65157604688e-11
5.64951836732e-10
4.87494998344e-11
5.52420545203e-10
4.18906267971e-11
5.41610032638e-10
3.58015486401e-11
5.32373626617e-10
3.03653079476e-11
5.2458139609e-10
2.54822366145e-11
5.18119369551e-10
2.10671076184e-11
5.12888491475e-10
1.70467450801e-11
5.08803475418e-10
1.33580348411e-11
5.05791647553e-10
9.94627559521e-12
5.03791833048e-10
6.76381545555e-12
5.02753312145e-10
3.76892653295e-12
5.02634856137e-10
9.24878173265e-13
5.03403843566e-10
-1.80082288099e-12
5.05035447703e-10
-4.43704503748e-12
5.07511888212e-10
-7.00952595114e-12
5.1082173167e-10
-9.54125832692e-12
5.14959223512e-10
-1.20527716744e-11
5.19923632531e-10
-1.4562316589e-11
5.25718586958e-10
-1.70859522669e-11
5.32351378138e-10
-1.96375342474e-11
5.39832205405e-10
-2.22285958509e-11
5.48173332178e-10
-2.48681138267e-11
5.57388120464e-10
-2.75621461605e-11
5.67489907241e-10
-3.0313328583e-11
5.78490683882e-10
-3.31202162899e-11
5.9039953762e-10
-3.59764600594e-11
6.03220814893e-10
-3.8869812199e-11
6.16951969659e-10
-4.17809696845e-11
6.3158106922e-10
-4.46822810394e-11
6.47083946024e-10
-4.75363725722e-11
6.63421011237e-10
-5.02947899053e-11
6.80533785461e-10
-5.28968034103e-11
6.9834125868e-10
-5.52685888393e-11
7.16736264519e-10
-5.73230613213e-11
7.35582143744e-10
-5.89606989143e-11
7.54710069603e-10
-6.00717214246e-11
7.73917501316e-10
-6.0539963898e-11
7.92968296966e-10
-6.02486737803e-11
8.11595026106e-10
-5.90882441305e-11
8.29503941976e-10
-5.6965571118e-11
8.46382881446e-10
-5.38143205506e-11
8.61912047738e-10
-4.96049703772e-11
8.75777217514e-10
-4.43531595684e-11
8.8768444764e-10
-3.81247372694e-11
8.97374927473e-10
-3.10360927822e-11
9.0463835074e-10
-2.32489530061e-11
9.0932320664e-10
-1.49598522342e-11
9.11342797707e-10
-6.38570550413e-12
9.10676536096e-10
2.25207317481e-12
9.07366931833e-10
1.07421354576e-11
9.0151336814e-10
1.88942286678e-11
8.93264015166e-10
2.6545807924e-11
8.82807074182e-10
3.35646235796e-11
8.70362126282e-10
3.98485249958e-11
8.56171902393e-10
4.53239532401e-11
8.40494472225e-10
4.99442321338e-11
8.23595735907e-10
5.36881453559e-11
8.05742161031e-10
5.65587112417e-11
7.87193858873e-10
5.85817305281e-11
7.68198242167e-10
5.98036403418e-11
7.48984585656e-10
6.0288402489e-11
7.29759788912e-10
6.0113459977e-11
7.10705533952e-10
5.93650777936e-11
6.91976877382e-10
5.81335459051e-11
6.73702167805e-10
5.65087345504e-11
6.55984067574e-10
5.45763832164e-11
6.38901400559e-10
5.24153359691e-11
6.22511539412e-10
5.00957663588e-11
6.06853074746e-10
4.76783044881e-11
5.91948556738e-10
4.52139012194e-11
5.7780715452e-10
4.27442361259e-11
5.64427129599e-10
4.03024829597e-11
5.51798062883e-10
3.79142742902e-11
5.39902807779e-10
3.55987428524e-11
5.28719165937e-10
3.3369552904e-11
5.18221297652e-10
3.12358657452e-11
5.08380888724e-10
2.92032079569e-11
4.99168100092e-10
2.7274228639e-11
4.90552328396e-10
2.54493440483e-11
4.82502804809e-10
2.37272755408e-11
4.74989057874e-10
2.21054909784e-11
4.67981263289e-10
2.05805616152e-11
4.61450500985e-10
1.91484468909e-11
4.55368936761e-10
1.78047189967e-11
4.49709943224e-10
1.65447380682e-11
4.44448172103e-10
1.53637876003e-11
4.39559587945e-10
1.42571784216e-11
4.35021471083e-10
1.32203283559e-11
4.30812396215e-10
1.22488236481e-11
4.26912191342e-10
1.13384673326e-11
4.23301880657e-10
1.04853189903e-11
4.19963613857e-10
9.68572978467e-12
4.16880583476e-10
8.9363762374e-12
4.14036931134e-10
8.23429592209e-12
4.11417642996e-10
7.57692802674e-12
4.09008434482e-10
6.96216157404e-12
4.06795624146e-10
6.38839382458e-12
4.04765997109e-10
5.85460095496e-12
4.02906659424e-10
5.36042214624e-12
4.01204886782e-10
4.90625638159e-12
3.99647974478e-10
4.49336761706e-12
3.98223101292e-10
4.12398721931e-12
3.96917228754e-10
3.80138987425e-12
3.95717070333e-10
3.52989572843e-12
3.94609182508e-10
3.31470774766e-12
3.93580248745e-10
3.16141113323e-12
3.92617632387e-10
3.0748064695e-12
3.91710203051e-10
3.05646235931e-12
3.9084907314e-10
3.09991012041e-12
3.90026545616e-10
3.18208035906e-12
3.25128154651e-12
9.57433889285e-10
1.09360137576e-10
9.82127274807e-10
2.43449258577e-10
9.94146427196e-10
3.05519379075e-10
9.90766153474e-10
3.20791126156e-10
9.75148503228e-10
3.10649128697e-10
9.5140884964e-10
2.885143129e-10
9.23010309702e-10
2.61818618059e-10
8.92495285844e-10
2.34418331841e-10
8.61608636723e-10
2.0819896521e-10
8.31490705913e-10
1.8399337732e-10
8.02849417804e-10
1.62083088099e-10
7.76093385379e-10
1.42468515148e-10
7.51429074247e-10
1.25014168883e-10
7.28929672768e-10
1.09526315192e-10
7.0858303915e-10
9.57939675159e-11
6.90324643114e-10
8.36098580634e-11
6.74059931382e-10
7.27804657574e-11
6.59679321723e-10
6.31301032827e-11
6.47068100939e-10
5.45018416071e-11
6.36112824012e-10
4.6756819839e-11
6.26705326962e-10
3.97727995128e-11
6.18745124381e-10
3.34424339611e-11
6.12140723409e-10
2.76715035999e-11
6.06810219707e-10
2.23772440371e-11
6.02681425331e-10
1.74868247092e-11
5.99691698527e-10
1.29359981274e-11
5.97787589817e-10
8.66792011631e-12
5.9692438034e-10
4.63213218068e-12
5.97065561244e-10
7.8369364462e-13
5.98182284232e-10
-2.91754929218e-12
6.00252797001e-10
-6.50756104342e-12
6.03261876684e-10
-1.00186086852e-11
6.07200256947e-10
-1.34796414683e-11
6.12064042217e-10
-1.6916559645e-11
6.17854098216e-10
-2.03523751174e-11
6.24575403742e-10
-2.38072601348e-11
6.3223634437e-10
-2.72984770254e-11
6.40847925128e-10
-3.08401785393e-11
6.50422875066e-10
-3.44430654552e-11
6.60974613082e-10
-3.81138855839e-11
6.72516040508e-10
-4.18547570957e-11
6.85058123099e-10
-4.56622995903e-11
6.98608222819e-10
-4.95265600636e-11
7.13168139906e-10
-5.34297290771e-11
7.2873182846e-10
-5.73446574857e-11
7.45282756919e-10
-6.12332081344e-11
7.6279089955e-10
-6.50445131858e-11
7.81209370594e-10
-6.8713258228e-11
8.00470751299e-10
-7.21581806657e-11
8.2048321651e-10
-7.52810498449e-11
8.41126643375e-10
-7.79664832321e-11
8.62248981198e-10
-8.00830310359e-11
8.83663272145e-10
-8.14860059629e-11
9.05145824943e-10
-8.20225096227e-11
9.26436132244e-10
-8.15389734292e-11
9.47239153849e-10
-7.98912576109e-11
9.6723052237e-10
-7.69569312081e-11
9.86065033277e-10
-7.26488229288e-11
1.0033884417e-09
-6.69283704585e-11
1.0188521184e-09
-5.98168284495e-11
1.03212956529e-09
-5.14021772538e-11
1.04293325164e-09
-4.18397735641e-11
1.0510298537e-09
-3.13455512531e-11
1.05625195243e-09
-2.01819492446e-11
1.05850471251e-09
-8.63846620202e-12
1.05776699753e-09
2.98978509125e-12
1.05408748486e-09
1.44216427163e-11
1.04757720507e-09
2.54045008988e-11
1.03840021574e-09
3.5722787876e-11
1.02676384274e-09
4.52009857723e-11
1.01290932611e-09
5.37030297749e-11
9.97103105925e-10
6.11301609067e-11
9.7962860202e-10
6.74187231855e-11
9.60778242906e-10
7.25384915816e-11
9.40845621998e-10
7.64913194694e-11
9.20117885394e-10
7.93094548712e-11
8.98868662792e-10
8.10528512543e-11
8.77351956569e-10
8.18050977147e-11
8.55797371826e-10
8.16680344768e-11
8.34406927532e-10
8.07555126368e-11
8.13353493755e-10
7.91869710087e-11
7.92780716727e-10
7.70815036568e-11
7.72804164424e-10
7.45529282833e-11
7.53513366081e-10
7.17061276983e-11
7.34974419727e-10
6.86347066316e-11
7.17232883337e-10
6.54198352526e-11
7.0031672532e-10
6.21300539771e-11
6.84239173648e-10
5.88217828354e-11
6.69001359303e-10
5.55402925635e-11
6.54594695517e-10
5.23209335036e-11
6.41002967999e-10
4.91904659129e-11
6.28204135065e-10
4.61683814659e-11
6.16171851547e-10
4.3268144943e-11
6.04876739376e-10
4.0498315848e-11
5.94287431864e-10
3.78635318994e-11
5.84371420146e-10
3.53653515455e-11
5.75095729403e-10
3.30029620929e-11
5.66427450738e-10
3.0773765495e-11
5.58334151957e-10
2.86738562979e-11
5.50784187878e-10
2.66984069375e-11
5.43746927922e-10
2.48419749995e-11
5.37192916175e-10
2.30987459559e-11
5.31093976642e-10
2.14627233804e-11
5.25423274249e-10
1.99278771838e-11
5.20155340198e-10
1.8488258908e-11
5.15266068636e-10
1.71380918563e-11
5.10732690096e-10
1.58718426689e-11
5.06533725994e-10
1.46842800505e-11
5.02648927339e-10
1.35705255624e-11
4.99059200046e-10
1.25261008232e-11
4.95746518475e-10
1.15469749576e-11
4.92693828383e-10
1.06296157577e-11
4.8988494017e-10
9.77104759779e-12
4.87304413328e-10
8.96891864913e-12
4.84937433327e-10
8.22157910649e-12
4.82769683059e-10
7.52817072996e-12
4.80787212457e-10
6.88872545992e-12
4.78976312342e-10
6.30426636433e-12
4.77323402124e-10
5.7768962224e-12
4.75814945832e-10
5.30984510158e-12
4.74437416801e-10
4.90742384577e-12
4.73177336191e-10
4.57478760122e-12
4.72021407748e-10
4.31733898607e-12
4.70956739756e-10
4.13947405571e-12
4.69971023541e-10
4.04217836387e-12
4.69052164815e-10
4.01876882304e-12
4.68186012921e-10
4.0482323502e-12
4.08729558833e-12
9.52786278473e-10
9.40738547707e-11
9.75973169005e-10
2.20262359275e-10
9.92744786509e-10
2.88747752975e-10
9.98414882881e-10
3.15121021342e-10
9.93631630721e-10
3.15432372346e-10
9.80818710291e-10
3.01327224841e-10
9.62528337442e-10
2.80108982502e-10
9.40899774564e-10
2.56046886417e-10
9.17568043375e-10
2.31530688213e-10
8.93721251312e-10
2.07840161321e-10
8.70191675323e-10
1.85612656163e-10
8.47542038796e-10
1.651181439e-10
8.26136624088e-10
1.4641957598e-10
8.06196579951e-10
1.29466351895e-10
7.87841688716e-10
1.1414885151e-10
7.71121364734e-10
1.00330175007e-10
7.5603738711e-10
8.7864436559e-11
7.42560410823e-10
7.6607072971e-11
7.30641851248e-10
6.64203948135e-11
7.20222356876e-10
5.71763080787e-11
7.1123778216e-10
4.87573683359e-11
7.03623338665e-10
4.10568718026e-11
6.97316425401e-10
3.39784114492e-11
6.92258506366e-10
2.74351578946e-11
6.88396304382e-10
2.13490217471e-11
6.85682507066e-10
1.5649790722e-11
6.84076126528e-10
1.02742961528e-11
6.83542614388e-10
5.16564002787e-12
6.84053803984e-10
2.7249995509e-13
6.85587728396e-10
-4.45147760721e-12
6.88128346336e-10
-9.04818270486e-12
6.91665203475e-10
-1.35554693727e-11
6.96193033414e-10
-1.80074747894e-11
7.01711302417e-10
-2.24348318655e-11
7.08223694562e-10
-2.68647703131e-11
7.15737528355e-10
-3.13210968065e-11
7.2426309071e-10
-3.5824042071e-11
7.3381286951e-10
-4.0389959822e-11
7.44400661428e-10
-4.50308596174e-11
7.56040527335e-10
-4.97537534571e-11
7.68745563443e-10
-5.45597948433e-11
7.8252645268e-10
-5.94431900857e-11
7.97389757883e-10
-6.43898660799e-11
8.13335917134e-10
-6.93758886283e-11
8.30356902831e-10
-7.43656429002e-11
8.48433511707e-10
-7.93098160793e-11
8.67532265097e-10
-8.41432649316e-11
8.87601920746e-10