/*--------------------------------*- C++ -*----------------------------------*\
  =========                 |
  \\      /  F ield         | OpenFOAM: The Open Source CFD Toolbox
   \\    /   O peration     | Website:  https://openfoam.org
    \\  /    A nd           | Version:  7
     \\/     M anipulation  |
\*---------------------------------------------------------------------------*/
FoamFile
{
    version     2.0;
    format      ascii;
    class       volScalarField;
    location    "1860";
    object      Ci;
}
// * * * * * * * * * * * * * * * * * * * * * * * * * * * * * * * * * * * * * //

dimensions      [0 -3 0 0 1 0 0];

internalField   nonuniform List<scalar> 
8192
(
10.0000000171
9.99999994064
9.99999982734
9.99999968363
9.99999950808
9.99999930557
9.99999907994
9.99999883418
9.99999857085
9.99999829311
9.99999800405
9.99999770738
9.9999974063
9.99999710463
9.99999680533
9.99999651206
9.99999622741
9.99999595475
9.99999569616
9.9999954546
9.99999523141
9.99999502892
9.99999484746
9.99999468842
9.99999455073
9.9999944345
9.99999433693
9.9999942565
9.99999418845
9.99999412944
9.99999407265
9.99999401296
9.99999394171
9.99999385238
9.99999373503
9.99999358242
9.99999338429
9.99999313378
9.99999282169
9.9999924429
9.99999199082
9.99999146346
9.99999085834
9.99999017769
9.99998942409
9.99998860443
9.99998772655
9.99998680152
9.99998584187
9.99998486178
9.99998387738
9.99998290467
9.99998196237
9.99998106712
9.99998023919
9.99997949477
9.99997885456
9.99997833306
9.99997795009
9.99997771725
9.9999776519
9.99997776108
9.99997805728
9.9999785404
9.9999792151
9.99998007202
9.99998110647
9.99998230004
9.99998363945
9.99998509913
9.99998665904
9.99998828866
9.99998996299
9.99999164876
9.99999331839
9.99999493929
9.99999648523
9.99999792856
9.99999924841
10.0000004254
10.0000014466
10.0000023027
10.0000029897
10.0000035086
10.0000038643
10.0000040669
10.0000041281
10.0000040648
10.0000038931
10.0000036333
10.0000033027
10.0000029217
10.0000025065
10.0000020752
10.000001642
10.0000012211
10.0000008205
10.0000004491
10.0000001104
9.99999980926
9.9999995453
9.99999932004
9.99999913052
9.99999897585
9.99999885149
9.99999875517
9.99999868169
9.99999862829
9.99999858986
9.99999856379
9.99999854554
9.99999853305
9.99999852267
9.99999851307
9.99999850155
9.99999848754
9.99999846917
9.99999844636
9.99999841757
9.9999983826
9.99999833937
9.99999828657
9.99999822096
9.99999814076
9.99999804496
9.99999793918
9.99999783795
9.99999776808
9.99999999077
9.99999989478
9.99999978872
9.99999966834
9.9999995246
9.99999935545
9.99999916117
9.99999894358
9.99999870525
9.99999844959
9.99999818
9.99999790035
9.99999761409
9.99999732508
9.99999703654
9.99999675212
9.99999647467
9.99999620757
9.99999595316
9.9999957144
9.99999549294
9.99999529115
9.99999510976
9.99999495021
9.99999481198
9.99999469526
9.99999459797
9.99999451876
9.99999445371
9.99999439973
9.99999435103
9.99999430279
9.99999424751
9.99999417901
9.99999408857
9.99999396918
9.99999381182
9.9999936097
9.99999335468
9.99999304142
9.99999266409
9.99999222005
9.99999170707
9.99999112619
9.99999047964
9.99998977251
9.99998901161
9.99998820572
9.99998736567
9.99998650299
9.99998563157
9.99998476462
9.99998391815
9.99998310605
9.99998234557
9.99998165049
9.99998103833
9.99998052192
9.99998011812
9.99997983792
9.99997969636
9.99997970135
9.99997986413
9.99998018744
9.99998067635
9.99998132657
9.99998213564
9.99998309192
9.99998418566
9.99998539881
9.99998671532
9.99998811195
9.99998956749
9.99999105495
9.99999254975
9.99999402372
9.99999545207
9.99999680904
9.99999807319
9.99999922442
10.0000002475
10.0000011302
10.0000018654
10.00000245
10.000002885
10.0000031763
10.0000033324
10.0000033661
10.000003291
10.0000031242
10.0000028816
10.0000025813
10.000002239
10.0000018714
10.0000014949
10.0000011222
10.0000007613
10.0000004212
10.0000001064
9.99999982217
9.99999956953
9.9999993504
9.99999916316
9.99999900728
9.9999988794
9.99999877753
9.99999869743
9.99999863647
9.99999859031
9.99999855632
9.99999853054
9.99999851081
9.99999849387
9.99999847823
9.99999846146
9.99999844278
9.99999842052
9.99999839439
9.99999836307
9.99999832619
9.99999828194
9.9999982289
9.99999816411
9.9999980857
9.99999799291
9.99999788994
9.99999778711
9.99999770853
9.99999999063
9.99999989017
9.9999997918
9.99999968924
9.99999957378
9.99999944173
9.99999929067
9.99999911995
9.99999892972
9.99999872172
9.99999849785
9.99999826122
9.99999801451
9.9999977614
9.99999750474
9.99999724834
9.99999699484
9.99999674799
9.99999651004
9.99999628446
9.99999607292
9.99999587847
9.99999570199
9.99999554583
9.99999540982
9.99999529537
9.99999520095
9.99999512674
9.99999506967
9.9999950285
9.99999499849
9.99999497693
9.99999495756
9.99999493634
9.99999490586
9.99999486121
9.99999479449
9.99999470062
9.99999457214
9.99999440474
9.99999419251
9.9999939328
9.99999362233
9.99999326082
9.99999284836
9.99999238728
9.99999188125
9.99999133491
9.99999075515
9.99999014822
9.99998952364
9.99998888846
9.99998825421
9.99998762823
9.99998702359
9.99998644754
9.99998591427
9.99998543071
9.99998501168
9.99998466355
9.99998440112
9.99998422963
9.9999841625
9.99998420253
9.99998435985
9.99998463333
9.99998502827
9.9999855391
9.99998616587
9.99998689866
9.9999877322
9.9999886525
9.99998964898
9.99999070382
9.99999180165
9.99999292191
9.99999404613
9.99999515328
9.9999962243
9.99999724021
9.99999818404
9.9999990413
9.99999979953
10.0000004507
10.0000009886
10.0000014127
10.0000017233
10.0000019267
10.0000020291
10.0000020421
10.0000019755
10.0000018435
10.0000016576
10.0000014322
10.0000011787
10.0000009107
10.0000006364
10.0000003661
10.0000001052
9.99999986038
9.99999963405
9.99999943007
9.99999924817
9.99999908981
9.99999895288
9.99999883716
9.99999873946
9.9999986586
9.99999859097
9.99999853507
9.99999848739
9.99999844651
9.9999984094
9.99999837505
9.99999834104
9.99999830687
9.99999827079
9.99999823275
9.99999819137
9.99999814664
9.9999980969
9.99999804125
9.99999797676
9.99999790162
9.99999781479
9.99999772068
9.99999762226
9.99999754442
9.99999999096
9.99999989
9.99999979469
9.99999970186
9.99999960311
9.99999949468
9.99999937396
9.99999923955
9.99999909073
9.99999892785
9.99999875162
9.99999856364
9.99999836561
9.99999815996
9.99999794899
9.99999773559
9.99999752231
9.99999731222
9.99999710784
9.99999691217
9.99999672749
9.99999655652
9.99999640106
9.99999626329
9.99999614433
9.99999604556
9.99999596718
9.9999959095
9.9999958716
9.99999585249
9.99999585006
9.99999586184
9.99999588457
9.9999959144
9.99999594706
9.99999597763
9.99999600123
9.99999601241
9.9999960062
9.99999597744
9.99999592174
9.999995835
9.99999571419
9.9999955569
9.99999536209
9.99999512932
9.99999485983
9.99999455506
9.99999421841
9.99999385285
9.99999346352
9.99999305458
9.99999263253
9.99999220248
9.99999177204
9.99999134713
9.99999093623
9.9999905459
9.99999018513
9.99998986083
9.99998958206
9.99998935549
9.99998918928
9.99998908866
9.99998905951
9.99998910434
9.99998922596
9.99998942403
9.99998969855
9.99999004671
9.99999046607
9.99999095149
9.999991498
9.99999209791
9.99999274345
9.99999342439
9.99999413062
9.99999485017
9.99999557144
9.99999628173
9.99999696904
9.99999762134
9.99999822782
9.99999877889
9.9999992667
9.99999968565
10.0000000321
10.0000003052
10.0000005059
10.0000006375
10.0000007048
10.0000007146
10.0000006738
10.0000005908
10.0000004735
10.0000003307
10.0000001697
9.99999999818
9.99999982171
9.99999964611
9.99999947505
9.99999931226
9.99999915944
9.99999901848
9.99999888949
9.99999877293
9.99999866777
9.99999857352
9.99999848856
9.9999984119
9.99999834172
9.99999827695
9.99999821586
9.99999815759
9.99999810072
9.99999804472
9.99999798859
9.99999793212
9.99999787463
9.99999781603
9.99999775548
9.99999769238
9.99999762482
9.99999755132
9.99999746944
9.99999738543
9.99999729088
9.99999723852
9.9999999903
9.999999888
9.99999979345
9.99999970434
9.99999961348
9.99999951752
9.99999941404
9.99999930171
9.99999917967
9.99999904788
9.99999890654
9.99999875652
9.99999859874
9.99999843477
9.99999826613
9.99999809494
9.99999792311
9.99999775312
9.99999758707
9.99999742759
9.9999972768
9.99999713722
9.99999701077
9.99999689965
9.99999680539
9.99999672952
9.99999667307
9.99999663652
9.99999662034
9.99999662358
9.99999664618
9.99999668539
9.99999674075
9.99999680756
9.99999688504
9.99999696685
9.99999705183
9.99999713274
9.99999720791
9.99999727035
9.99999731785
9.99999734469
9.99999734853
9.99999732549
9.9999972739
9.99999719176
9.99999707879
9.99999693468
9.99999676088
9.99999655851
9.99999633069
9.99999607982
9.99999581055
9.99999552649
9.9999952337
9.9999949369
9.99999464328
9.99999435836
9.99999408995
9.99999384381
9.99999362758
9.99999344643
9.99999330668
9.99999321155
9.99999316462
9.9999931661
9.99999321648
9.99999331346
9.99999345542
9.99999363876
9.99999386082
9.99999411752
9.99999440567
9.99999472088
9.99999505931
9.99999541628
9.9999957875
9.99999616819
9.9999965536
9.99999693864
9.99999731787
9.99999768584
9.99999803669
9.99999836519
9.99999866596
9.99999893495
9.99999916827
9.99999936387
9.99999952001
9.999999637
9.99999971536
9.99999975752
9.99999976585
9.99999974428
9.99999969628
9.99999962652
9.99999953883
9.99999943783
9.99999932696
9.99999921016
9.99999909006
9.99999896956
9.99999885031
9.99999873415
9.99999862176
9.99999851409
9.99999841107
9.99999831297
9.99999821925
9.99999812978
9.9999980438
9.99999796101
9.99999788064
9.99999780244
9.99999772579
9.99999765057
9.99999757638
9.99999750332
9.99999743116
9.99999736005
9.99999728964
9.99999721983
9.99999714917
9.99999707754
9.99999700029
9.99999692878
9.99999683667
9.99999681718
9.99999998941
9.99999988682
9.99999979213
9.99999970467
9.99999961776
9.99999952839
9.99999943447
9.99999933485
9.9999992289
9.99999911652
9.99999899781
9.99999887332
9.99999874371
9.99999861002
9.99999847336
9.99999833522
9.9999981971
9.99999806084
9.99999792823
9.99999780131
9.99999768204
9.9999975724
9.9999974745
9.99999738989
9.99999732079
9.99999726784
9.99999723357
9.9999972169
9.99999722114
9.99999724247
9.99999728572
9.99999734315
9.99999742196
9.99999750964
9.99999761615
9.99999772439
9.99999784638
9.99999796234
9.99999808413
9.99999819271
9.99999829709
9.99999838227
9.99999845296
9.99999849965
9.99999852361
9.99999852005
9.99999848906
9.99999842892
9.99999834044
9.99999822388
9.99999808146
9.99999791516
9.99999772875
9.99999752596
9.99999731208
9.99999709264
9.99999687416
9.99999666354
9.99999646782
9.9999962944
9.9999961498
9.99999604053
9.99999597099
9.99999594486
9.99999596257
9.99999602349
9.99999612386
9.9999962596
9.99999642472
9.99999661354
9.99999681968
9.99999703744
9.99999726121
9.99999748594
9.9999977072
9.99999792106
9.99999812488
9.99999831638
9.99999849463
9.99999865854
9.99999880796
9.99999894214
9.99999906103
9.99999916388
9.99999925055
9.99999932035
9.99999937322
9.99999940881
9.99999942734
9.999999429
9.99999941445
9.99999938448
9.99999934019
9.99999928289
9.99999921399
9.99999913513
9.99999904784
9.99999895384
9.99999885455
9.99999875156
9.999998646
9.99999853914
9.99999843173
9.99999832468
9.99999821837
9.99999811337
9.99999800977
9.99999790788
9.99999780763
9.99999770918
9.99999761239
9.9999975174
9.99999742406
9.99999733257
9.9999972429
9.9999971553
9.99999706987
9.99999698698
9.99999690678
9.99999682967
9.99999675559
9.99999668488
9.9999966161
9.99999655076
9.9999964811
9.99999642566
9.99999633975
9.99999634974
9.99999998961
9.99999988738
9.99999979257
9.99999970554
9.99999962041
9.99999953446
9.99999944588
9.99999935367
9.99999925735
9.99999915688
9.99999905236
9.99999894422
9.99999883297
9.99999871942
9.99999860445
9.99999848917
9.99999837485
9.99999826284
9.99999815475
9.99999805202
9.99999795667
9.99999786982
9.99999779417
9.99999772982
9.99999768069
9.99999764464
9.9999976281
9.99999762443
9.99999764499
9.99999767523
9.99999773499
9.99999779738
9.9999978951
9.99999798454
9.99999811444
9.99999822307
9.99999837405
9.99999849224
9.99999864806
9.99999876497
9.99999890658
9.99999900982
9.99999911936
9.99999919494
9.99999925923
9.99999929349
9.99999930517
9.99999928853
9.99999924531
9.99999917518
9.99999907972
9.99999896093
9.9999988219
9.99999866651
9.9999984997
9.99999832731
9.99999815597
9.99999799315
9.9999978465
9.99999772407
9.99999763331
9.99999758113
9.99999757266
9.99999761115
9.99999769688
9.99999782759
9.9999979984
9.99999820284
9.99999843324
9.99999868136
9.9999989389
9.99999919776
9.99999945045
9.99999968998
9.99999991024
10.0000001061
10.0000002738
10.0000004108
10.0000005163
10.0000005899
10.0000006327
10.0000006459
10.0000006316
10.0000005921
10.00000053
10.000000448
10.000000349
10.0000002358
10.0000001109
9.99999997704
9.99999983629
9.99999969077
9.99999954219
9.99999939211
9.99999924172
9.99999909208
9.99999894394
9.99999879795
9.99999865448
9.99999851388
9.99999837623
9.99999824165
9.99999811006
9.99999798142
9.99999785559
9.99999773247
9.99999761192
9.9999974939
9.99999737832
9.99999726522
9.99999715463
9.9999970467
9.99999694157
9.99999683951
9.99999674079
9.99999664576
9.99999655479
9.99999646828
9.99999638663
9.9999963102
9.99999623917
9.99999617392
9.99999611296
9.99999605879
9.99999600153
9.99999596412
9.99999589272
9.9999959228
9.99999998973
9.99999988844
9.99999979461
9.99999970838
9.99999962436
9.99999954028
9.99999945461
9.99999936661
9.99999927593
9.9999991826
9.99999908681
9.99999898889
9.99999888931
9.9999987887
9.99999868784
9.99999858758
9.99999848908
9.99999839325
9.99999830183
9.9999982154
9.99999813669
9.99999806514
9.99999800546
9.99999795415
9.99999792019
9.99999789352
9.99999789202
9.99999789234
9.99999792971
9.9999979562
9.99999803792
9.99999808593
9.99999821524
9.99999827692
9.99999845226
9.99999851905
9.99999873048
9.99999879683
9.99999902345
9.99999908874
9.99999930098
9.99999936638
9.99999953512
9.99999959602
9.99999970373
9.99999974577
9.99999978973
9.99999979499
9.99999978053
9.99999973815
9.99999967182
9.99999958233
9.99999947258
9.99999934612
9.99999920757
9.99999906295
9.99999891888
9.99999878377
9.99999866559
9.9999985743
9.99999851786
9.99999850564
9.99999854285
9.9999986346
9.99999877981
9.99999897648
9.9999992168
9.99999949352
9.99999979589
10.0000001146
10.0000004387
10.0000007591
10.0000010665
10.000001353
10.0000016112
10.0000018351
10.0000020201
10.0000021631
10.0000022627
10.0000023183
10.0000023307
10.0000023011
10.000002232
10.000002126
10.0000019871
10.0000018188
10.0000016261
10.000001413
10.0000011845
10.0000009446
10.0000006976
10.0000004469
10.0000001958
9.9999999468
9.99999970214
9.99999946337
9.99999923177
9.99999900807
9.99999879275
9.99999858599
9.9999983877
9.99999819769
9.99999801557
9.99999784098
9.99999767345
9.99999751261
9.99999735805
9.99999720952
9.99999706675
9.99999692968
9.99999679819
9.99999667241
9.99999655241
9.99999643842
9.99999633068
9.99999622948
9.99999613517
9.99999604802
9.99999596844
9.99999589654
9.9999958326
9.99999577658
9.99999572739
9.99999568678
9.99999564583
9.99999562465
9.99999557568
9.9999956137
9.99999998995
9.99999988894
9.99999979475
9.99999970886
9.99999962573
9.99999954304
9.99999945941
9.99999937418
9.99999928715
9.99999919837
9.99999910813
9.9999990167
9.99999892456
9.99999883214
9.99999874031
9.9999986495
9.99999856115
9.99999847537
9.99999839471
9.99999831803
9.9999982503
9.99999818704
9.99999813857
9.99999809245
9.99999807085
9.99999804371
9.99999805833
9.99999804825
9.99999811092
9.99999811006
9.99999823559
9.99999822873
9.99999843388
9.99999839988
9.99999869829
9.99999861718
9.99999900854
9.99999887466
9.99999933089
9.99999916546
9.9999996253
9.99999947404
9.99999986039
9.99999976691
10.0000000253
9.99999999646
10.0000001237
10.0000001236
10.0000001543
10.0000001379
10.0000001068
10.0000000518
9.99999997709
9.99999988565
9.99999978083
9.99999966849
9.99999955459
9.99999944745
9.99999935571
9.99999928986
9.99999925972
9.99999927547
9.99999934447
9.99999947176
9.99999965719
9.99999989698
10.0000001828
10.0000005051
10.0000008523
10.0000012135
10.0000015767
10.0000019331
10.0000022716
10.0000025868
10.0000028725
10.000003122
10.0000033302
10.0000034932
10.0000036089
10.0000036757
10.0000036934
10.0000036622
10.0000035836
10.0000034602
10.0000032947
10.0000030926
10.0000028591
10.0000025986
10.0000023161
10.0000020166
10.0000017048
10.0000013853
10.0000010623
10.0000007392
10.0000004194
10.0000001052
9.99999979886
9.99999950174
9.999999215
9.99999893934
9.99999867513
9.9999984225
9.99999818138
9.99999795156
9.99999773277
9.9999975247
9.99999732706
9.99999713956
9.99999696202
9.99999679426
9.99999663624
9.99999648792
9.99999634938
9.99999622067
9.99999610198
9.99999599333
9.99999589504
9.99999580696
9.99999572957
9.99999566227
9.99999560578
9.9999955587
9.99999552151
9.9999954927
9.99999546859
9.99999545854
9.99999543509
9.99999546965
9.99999999041
9.99999988961
9.99999979638
9.99999971063
9.99999962753
9.99999954517
9.99999946236
9.99999937851
9.99999929351
9.99999920741
9.99999912052
9.99999903307
9.99999894558
9.99999885825
9.99999877213
9.9999986871
9.99999860527
9.99999852535
9.99999845181
9.99999838019
9.99999832033
9.99999825984
9.99999822099
9.99999817279
9.99999816534
9.99999812645
9.99999816605
9.99999812537
9.99999823651
9.99999816934
9.99999838974
9.9999982524
9.99999863544
9.99999836475
9.99999897335
9.99999849972
9.99999938227
9.99999866468
9.99999980991
9.99999888706
10.0000001775
9.99999919916
10.000000414
9.99999959695
10.0000005065
10.0000000067
10.0000005147
10.0000003171
10.0000005086
10.0000004651
10.0000004951
10.0000004704
10.0000004351
10.0000003803
10.0000003099
10.000000229
10.0000001417
10.0000000575
9.99999998524
9.99999993791
9.99999992658
9.99999996551
10.0000000632
10.0000002281
10.0000004583
10.0000007499
10.0000010899
10.0000014671
10.0000018656
10.0000022733
10.0000026754
10.0000030619
10.0000034268
10.0000037611
10.0000040581
10.0000043118
10.0000045193
10.0000046778
10.000004787
10.0000048458
10.0000048548
10.0000048136
10.0000047239
10.0000045867
10.0000044054
10.000004183
10.000003925
10.0000036355
10.0000033214
10.0000029874
10.0000026385
10.0000022789
10.0000019129
10.0000015442
10.0000011765
10.0000008124
10.0000004546
10.0000001051
9.99999976553
9.99999943707
9.99999912066
9.9999988169
9.9999985262
9.99999824877
9.99999798473
9.99999773411
9.9999974969
9.99999727307
9.99999706261
9.99999686551
9.9999966818
9.99999651148
9.99999635464
9.99999621122
9.99999608137
9.99999596486
9.99999586195
9.99999577202
9.99999569563
9.9999956313
9.99999558039
9.99999553961
9.99999551181
9.99999549059
9.9999954802
9.99999547477
9.9999954737
9.9999954967
9.9999999902
9.99999988863
9.9999997938
9.9999997077
9.99999962473
9.99999954276
9.99999946063
9.99999937779
9.99999929418
9.99999920985
9.99999912515
9.99999904019
9.99999895566
9.99999887136
9.99999878886
9.99999870703
9.99999862938
9.9999985522
9.99999848352
9.99999841307
9.99999835947
9.99999829662
9.99999826751
9.99999820952
9.99999822043
9.99999815632
9.99999823423
9.99999813659
9.9999983294
9.99999814132
9.99999853198
9.99999814999
9.99999887215
9.99999813235
9.99999937521
9.99999806179
10.0000000383
9.99999794581
10.0000007925
9.99999786453
10.0000014754
9.99999797671
10.0000018682
9.99999843509
10.000001837
9.99999922134
10.0000014906
10.0000000706
10.0000011342
10.0000006639
10.0000009783
10.0000009156
10.0000009641
10.0000009587
10.0000009422
10.0000009106
10.0000008673
10.0000008203
10.0000007782
10.0000007552
10.0000007656
10.0000008257
10.0000009498
10.0000011455
10.0000014119
10.0000017399
10.0000021169
10.0000025268
10.0000029553
10.0000033849
10.0000038031
10.0000042011
10.0000045685
10.0000048966
10.0000051794
10.0000054129
10.0000055958
10.000005728
10.0000058106
10.0000058442
10.0000058297
10.0000057676
10.0000056586
10.0000055042
10.0000053065
10.0000050683
10.0000047938
10.0000044872
10.0000041539
10.000003799
10.0000034281
10.0000030457
10.0000026556
10.0000022613
10.0000018661
10.0000014729
10.0000010844
10.0000007028
10.0000003298
9.99999996722
9.99999961613
9.9999992776
9.99999895241
9.99999864121
9.99999834447
9.99999806261
9.99999779594
9.99999754473
9.99999730923
9.99999708961
9.99999688608
9.99999669867
9.99999652757
9.99999637262
9.99999623398
9.99999611115
9.99999600438
9.99999591256
9.99999583637
9.99999577343
9.99999572577
9.99999568817
9.9999956659
9.99999564775
9.99999564562
9.99999563947
9.99999565291
9.99999566095
9.99999999089
9.99999988865
9.99999979427
9.99999970714
9.9999996228
9.99999953971
9.99999945689
9.99999937381
9.99999929042
9.99999920665
9.99999912295
9.99999903914
9.99999895624
9.9999988734
9.99999879305
9.99999871255
9.99999863756
9.99999856091
9.99999849575
9.99999842383
9.99999837573
9.99999830711
9.99999828835
9.99999821555
9.99999824837
9.99999815028
9.99999827672
9.99999810406
9.99999840457
9.99999805405
9.99999867938
9.99999795284
9.99999917058
9.99999772303
9.99999996639
9.9999972689
10.0000011433
9.99999652863
10.0000026847
9.999995583
10.0000043552
9.99999477795
10.0000056269
9.99999470007
10.0000058646
9.99999581489
10.0000048535
9.9999978972
10.0000032267
9.99999996991
10.0000020225
10.0000011855
10.0000016387
10.0000015936
10.0000016612
10.0000016825
10.0000016852
10.000001679
10.0000016706
10.000001667
10.0000016912
10.0000017776
10.000001942
10.0000021818
10.0000024796
10.0000028274
10.0000032209
10.0000036577
10.000004128
10.0000046081
10.0000050803
10.0000055209
10.0000059122
10.0000062428
10.0000065078
10.000006706
10.0000068412
10.0000069173
10.0000069404
10.0000069135
10.0000068408
10.0000067229
10.0000065625
10.00000636
10.0000061187
10.0000058404
10.0000055299
10.0000051906
10.0000048279
10.0000044462
10.0000040509
10.0000036463
10.0000032369
10.0000028247
10.0000024126
10.0000020029
10.0000015977
10.0000011991
10.0000008087
10.0000004281
10.0000000585
9.99999970128
9.99999935727
9.99999902736
9.99999871231
9.99999841279
9.99999812936
9.99999786253
9.99999761276
9.99999738037
9.9999971657
9.99999696885
9.99999679005
9.99999662906
9.99999648605
9.99999636027
9.99999625196
9.99999615956
9.99999608385
9.99999602171
9.99999597558
9.99999593896
9.99999591853
9.99999590013
9.99999590026
9.9999958903
9.99999590847
9.99999590252
9.9999999902
9.99999988633
9.99999978916
9.99999970088
9.99999961578
9.999999532
9.99999944865
9.99999936521
9.99999928174
9.99999919803
9.99999911471
9.99999903124
9.9999989491
9.99999886663
9.99999878734
9.99999870687
9.99999863329
9.99999855572
9.99999849261
9.99999841783
9.99999837334
9.99999829806
9.9999982868
9.99999819979
9.99999824944
9.99999812138
9.99999828665
9.99999804947
9.99999844019
9.9999979468
9.9999987818
9.99999773283
9.99999943354
9.99999725872
10.000000589
9.99999629179
10.0000025083
9.99999455278
10.0000054251
9.99999188479
10.0000092851
9.99998860827
10.0000133363
9.99998590818
10.0000159252
9.99998566288
10.0000152437
9.9999890693
10.0000111616
9.9999948614
10.0000061979
9.99999983226
10.0000032767
10.0000021326
10.000002674
10.0000027
10.0000028006
10.0000028901
10.0000029301
10.0000029385
10.0000030219
10.0000032369
10.0000034646
10.0000035235
10.0000033555
10.0000031004
10.0000029823
10.0000031769
10.0000037048
10.0000044762
10.0000053405
10.0000061595
10.0000068483
10.0000073743
10.0000077418
10.0000079721
10.0000080913
10.000008123
10.000008086
10.0000079938
10.0000078556
10.0000076771
10.0000074614
10.0000072105
10.0000069254
10.0000066079
10.0000062599
10.000005885
10.0000054867
10.0000050705
10.0000046405
10.000004203
10.0000037612
10.0000033215
10.0000028841
10.0000024515
10.0000020255
10.000001608
10.0000012005
10.0000008042
10.0000004204
10.00000005
9.99999969394
9.99999935301
9.99999902792
9.99999871935
9.99999842791
9.9999981541
9.99999789842
9.99999766117
9.99999744276
9.99999724313
9.99999706262
9.99999690069
9.99999675762
9.99999663222
9.9999965249
9.99999643348
9.99999635896
9.99999629753
9.99999625187
9.99999621478
9.99999619327
9.9999961725
9.99999616969
9.99999615449
9.9999961683
9.99999615124
9.99999999113
9.999999886
9.9999997889
9.99999969854
9.9999996108
9.99999952454
9.99999943916
9.99999935407
9.9999992694
9.99999918471
9.99999910078
9.99999901669
9.99999893429
9.99999885126
9.99999877191
9.99999869062
9.99999861704
9.99999853807
9.99999847498
9.99999839786
9.99999835346
9.99999827455
9.99999826366
9.99999817137
9.99999822222
9.99999808652
9.99999825568
9.9999980056
9.99999840991
9.99999788614
9.99999876969
9.99999762801
9.99999949604
9.99999702203
10.0000008876
9.99999567592
10.0000034549
9.99999295261
10.0000079357
9.99998804739
10.0000150586
9.99998046634
10.0000247527
9.99997115053
10.0000348132
9.99996372731
10.0000402892
9.99996378088
10.000036202
9.99997403767
10.0000235399
9.9999892523
10.0000107512
10.0000001355
10.0000048919
10.0000037156
10.0000043211
10.0000044621
10.0000043474
10.000004483
10.0000052556
10.0000058165
10.0000043182
9.99999962966
9.99999253225
9.99998535491
9.99998055297
9.99997948638
9.99998200095
9.99998689054
9.99999262489
9.99999797321
10.0000022612
10.0000053204
10.0000072967
10.0000084533
10.000009051
10.0000092882
10.0000092984
10.0000091596
10.0000089186
10.0000086022
10.0000082324
10.0000078255
10.0000073969
10.0000069569
10.0000065138
10.0000060706
10.0000056294
10.0000051898
10.0000047519
10.0000043154
10.0000038814
10.0000034505
10.0000030257
10.000002606
10.0000021919
10.0000017846
10.0000013856
10.0000009964
10.0000006183
10.0000002523
9.99999989982
9.99999956165
9.9999992388
9.99999893203
9.9999986422
9.99999836985
9.99999811572
9.99999788002
9.99999766345
9.99999746567
9.99999728741
9.99999712753
9.99999698695
9.99999686344
9.99999675837
9.99999666806
9.99999659486
9.99999653299
9.99999648686
9.9999964471
9.99999642243
9.99999639639
9.99999638697
9.99999636392
9.99999636669
9.99999633846
9.99999999005
9.99999988269
9.99999978198
9.99999968988
9.99999960068
9.99999951286
9.99999942593
9.99999933936
9.99999925337
9.99999916742
9.99999908244
9.99999899724
9.99999891387
9.99999882973
9.9999987493
9.99999866679
9.99999859171
9.99999851144
9.99999844588
9.99999836786
9.99999831888
9.99999824094
9.99999822089
9.99999813515
9.99999816673
9.99999805173
9.99999817942
9.99999798243
9.99999829825
9.9999978956
9.99999859778
9.99999770564
9.9999992304
9.9999972082
10.0000005163
9.99999595229
10.000003112
9.99999302459
10.0000082602
9.99998679703
10.0000179658
9.9999749758
10.0000345057
9.99995582595
10.0000581893
9.99993158148
10.0000830749
9.99991260454
10.0000948836
9.99991481605
10.0000803661
9.9999436185
10.0000458566
9.99998082014
10.0000164419
10.000002086
10.0000076015
10.0000058169
10.0000058313
10.0000094847
10.000012821
10.0000026349
9.99996613603
9.9999033009
9.99982930063
9.99976613491
9.99973144775
9.99973160228
9.9997614095
9.99980888383
9.99986108891
9.99990830211
9.99994553565
9.99997189317
9.99998894631
9.99999915825
10.0000048763
10.0000079036
10.0000094457
10.0000102193
10.0000105974
10.0000107418
10.0000107039
10.0000104954
10.0000101249
10.0000096135
10.0000089939
10.0000083047
10.0000075819
10.0000068559
10.0000061479
10.0000054714
10.0000048325
10.0000042334
10.0000036718
10.0000031471
10.0000026522
10.0000021825
10.0000017349
10.0000013074
10.0000008986
10.0000005076
10.0000001342
9.99999977834
9.99999944043
9.9999991207
9.99999881997
9.99999853829
9.99999827676
9.99999803482
9.99999781394
9.99999761244
9.99999743246
9.99999727057
9.99999713017
9.99999700521
9.99999690127
9.99999680864
9.99999673643
9.99999666974
9.99999662322
9.99999657449
9.99999654672
9.99999650613
9.99999648937
9.99999644512
9.99999643384
9.99999637662
9.9999999912
9.99999988227
9.99999978138
9.99999968644
9.99999959365
9.99999950236
9.99999941236
9.99999932308
9.99999923472
9.99999914667
9.99999905973
9.99999897271
9.99999888747
9.99999880165
9.99999871908
9.99999863502
9.99999855706
9.99999847564
9.9999984056
9.99999832778
9.99999827102
9.99999819704
9.9999981622
9.99999808986
9.99999809138
9.99999801209
9.99999807588
9.99999796566
9.9999981423
9.99999794056
9.99999833753
9.99999789521
9.99999875786
9.99999770747
9.99999962402
9.99999705356
10.0000014662
9.99999512532
10.0000055381
9.99999004668
10.0000145849
9.99997796618
10.0000337364
9.99995256034
10.0000699413
9.99990770122
10.0001260183
9.99984755856
10.0001869672
9.99980056461
10.0002126752
9.99981063391
10.0001694866
9.99988620145
10.0000819007
9.99997353053
10.0000206726
10.000000956
10.0000185771
10.0000372764
9.99999059999
9.99978266903
9.99937304424
9.99882504606
9.99827809971
9.99787730646
9.99771356956
9.9977989131
9.99807776779
9.99846185518
9.99886423105
9.99922191848
9.99950340049
9.99970395378
9.99983525384
9.99991507698
9.99996040679
9.99998440384
9.99999608216
10.0000011518
10.0000030397
10.0000036732
10.0000040257
10.0000044794
10.0000050914
10.0000057687
10.0000063858
10.000006841
10.0000070799
10.0000070908
10.0000068952
10.0000065311
10.0000060439
10.0000054753
10.0000048631
10.000004234
10.0000036126
10.0000030064
10.0000024242
10.000001871
10.0000013494
10.0000008601
10.0000004032
9.99999997778
9.99999958332
9.99999921816
9.9999988824
9.99999857357
9.99999829299
9.99999803666
9.99999780796
9.99999760003
9.99999741968
9.99999725502
9.99999711868
9.9999969905
9.99999689269
9.99999679212
9.99999672615
9.99999664198
9.99999660007
9.99999651866
9.99999649208
9.99999639685
9.99999637567
9.99999624689
9.99999622199
9.99999604069
9.99999998982
9.99999987833
9.99999977333
9.99999967632
9.99999958159
9.99999948813
9.99999939583
9.99999930427
9.99999921365
9.99999912342
9.99999903422
9.99999894512
9.99999885749
9.99999876964
9.99999868425
9.99999859825
9.99999851658
9.99999843363
9.99999835823
9.99999828012
9.9999982149
9.99999814383
9.9999980945
9.99999803267
9.99999800747
9.99999795599
9.99999796712
9.99999792364
9.99999799046
9.99999794361
9.99999810083
9.99999801595
9.99999833647
9.99999811534
9.99999877928
9.99999813673
9.99999964982
9.9999977239
10.0000016067
9.99999575395
10.0000066078
9.99998896545
10.0000199853
9.99996908391
10.0000539697
9.99991947816
10.0001289478
9.99981951572
10.0002586935
9.99967410627
10.0004065776
9.99955997176
10.000463256
9.99959104861
10.0003494093
9.999787269
10.0001099858
9.99998678946
10.0001309113
9.99996152483
9.999048919
9.99698891679