/*--------------------------------*- C++ -*----------------------------------*\
  =========                 |
  \\      /  F ield         | OpenFOAM: The Open Source CFD Toolbox
   \\    /   O peration     | Website:  https://openfoam.org
    \\  /    A nd           | Version:  7
     \\/     M anipulation  |
\*---------------------------------------------------------------------------*/
FoamFile
{
    version     2.0;
    format      ascii;
    class       surfaceScalarField;
    location    "1860";
    object      phi;
}
// * * * * * * * * * * * * * * * * * * * * * * * * * * * * * * * * * * * * * //

dimensions      [0 3 -1 0 0 0 0];

internalField   nonuniform List<scalar> 
16192
(
6.92917889444e-10
2.44582110556e-10
4.9355281749e-10
1.99365077027e-10
3.64811764749e-10
1.28741057714e-10
2.82226063656e-10
8.25857057801e-11
2.27598997546e-10
5.46270707415e-11
1.89986342188e-10
3.76126599791e-11
1.63044758984e-10
2.69415878516e-11
1.4306091986e-10
1.99838438198e-11
1.27799988113e-10
1.52609365015e-11
1.15869111756e-10
1.19308811641e-11
1.06367581815e-10
9.50153479164e-12
9.86917104831e-11
7.67587620634e-12
9.24233025961e-11
6.26841277221e-12
8.72640108704e-11
5.15929659581e-12
8.29954735381e-11
4.26854217689e-12
7.94543409364e-11
3.54113739246e-12
7.65161534162e-11
2.9381922492e-12
7.40846367247e-11
2.43152132945e-12
7.20844085714e-11
2.00023269523e-12
7.04558913816e-11
1.62852160618e-12
6.9151688483e-11
1.30420718942e-12
6.81339536827e-11
1.01773893722e-12
6.73724501589e-11
7.61507514479e-13
6.68430969481e-11
5.29357031201e-13
6.65268670615e-11
3.16233556501e-13
6.64089430429e-11
1.17927522606e-13
6.64780642325e-11
-6.91178144961e-14
6.67260176646e-11
-2.47950186731e-13
6.71472377373e-11
-4.21216897123e-13
6.77384895712e-11
-5.91248707924e-13
6.84986163371e-11
-7.60123600667e-13
6.942833351e-11
-9.29713921561e-13
7.0530056582e-11
-1.10171961154e-12
7.1807749385e-11
-1.27768905536e-12
7.32667814886e-11
-1.45902790999e-12
7.49137819231e-11
-1.64699568382e-12
7.67564763965e-11
-1.84268897356e-12
7.88034927232e-11
-2.04700993786e-12
8.10641182012e-11
-2.26061798432e-12
8.35479896999e-11
-2.48386274244e-12
8.62646963772e-11
-2.7166964373e-12
8.92232731504e-11
-2.95856489366e-12
9.24315647857e-11
-3.20827791716e-12
9.58954433719e-11
-3.46386290324e-12
9.96178706452e-11
-3.72240948283e-12
1.03597809284e-10
-3.97991867579e-12
1.07829007555e-10
-4.2311760836e-12
1.12298706813e-10
-4.46967487349e-12
1.16986351574e-10
-4.68761825074e-12
1.21862411385e-10
-4.87603131311e-12
1.26887447835e-10
-5.02500618664e-12
1.32011571603e-10
-5.12409200321e-12
1.37174428494e-10
-5.16282400468e-12
1.42305830155e-10
-5.13136805316e-12
1.47327106651e-10
-5.02124270394e-12
1.52153212313e-10
-4.82607220035e-12
1.56695561366e-10
-4.54231658764e-12
1.60865503153e-10
-4.16991090282e-12
1.64578252902e-10
-3.71272118058e-12
1.67756979231e-10
-3.17870065756e-12
1.70336634717e-10
-2.57963342368e-12
1.72267063307e-10
-1.93041061841e-12
1.73514975669e-10
-1.24789905821e-12
1.74064575284e-10
-5.49591248679e-13
1.73916882767e-10
1.47695620481e-13
1.73088054897e-10
8.28825742697e-13
1.7160713857e-10
1.4809089539e-12
1.69513674499e-10
2.09345179196e-12
1.66855449945e-10
2.65820764301e-12
1.63686572974e-10
3.1688560131e-12
1.60065906405e-10
3.6206420535e-12
1.56055802697e-10
4.01007636781e-12
1.51721018182e-10
4.33475496921e-12
1.47127668823e-10
4.59331839483e-12
1.42342108062e-10
4.78552903309e-12
1.37429662335e-10
4.91241397686e-12
1.32453230109e-10
4.97640104191e-12
1.27471824176e-10
4.98137591686e-12
1.22539187034e-10
4.9326087425e-12
1.1770262624e-10
4.83653441889e-12
1.13002192774e-10
4.70040938833e-12
1.08470274482e-10
4.53189671604e-12
1.04131612933e-10
4.33864258325e-12
1.0000369556e-10
4.12790103742e-12
9.60974362472e-11
3.90624557808e-12
9.24180411297e-11
3.67938386007e-12
8.89659598317e-11
3.4520723871e-12
8.57378382336e-11
3.22811481469e-12
8.27274118316e-11
3.01042155778e-12
7.99263008793e-11
2.8011077788e-12
7.73246889696e-11
2.60161020051e-12
7.4911880772e-11
2.41280767553e-12
7.26767456682e-11
2.23513557595e-12
7.06080588719e-11
2.06868800646e-12
6.86947553359e-11
1.91330532506e-12
6.69261110993e-11
1.76864638783e-12
6.52918669292e-11
1.63424656829e-12
6.37823063557e-11
1.50956304934e-12
6.23882994049e-11
1.39400943444e-12
6.11013203064e-11
1.28698146761e-12
5.99134467753e-11
1.1878757565e-12
5.88173458506e-11
1.09610292583e-12
5.78062510057e-11
1.01109662488e-12
5.68739331599e-11
9.32319357219e-13
5.60146683127e-11
8.59266116315e-13
5.52232028773e-11
7.91466438665e-13
5.4494718103e-11
7.28485551757e-13
5.38247936303e-11
6.6992501609e-13
5.32093706071e-11
6.15423378884e-13
5.26447136043e-11
5.64657170757e-13
5.21273708781e-11
5.17342753265e-13
5.1654131324e-11
4.73239443141e-13
5.12219765113e-11
4.32154607235e-13
5.08280247114e-11
3.93951501798e-13
5.04694632613e-11
3.58561096972e-13
5.01434633017e-11
3.25999550509e-13
4.98470688821e-11
2.96393985475e-13
4.95770478548e-11
2.70020563261e-13
4.93296860001e-11
2.4736138623e-13
4.91004946625e-11
2.2919085827e-13
4.8883784719e-11
2.16709477905e-13
4.86720290822e-11
2.11755185047e-13
4.84548874772e-11
2.17141204066e-13
4.82176992933e-11
2.37187858e-13
4.79392142195e-11
2.78484889765e-13
4.75887053949e-11
3.50508820736e-13
4.71250676493e-11
4.63637902518e-13
5.94872057803e-13
9.5340321737e-10
2.28678898437e-10
8.59628580789e-10
2.93139723572e-10
7.45069661865e-10
2.43299986155e-10
6.41873818853e-10
1.85781557873e-10
5.56669461549e-10
1.39831437033e-10
4.88254756953e-10
1.06027373568e-10
4.33607731638e-10
8.15886222196e-11
3.897754845e-10
6.38161000904e-11
3.54344198139e-10
5.06922320735e-11
3.25457000214e-10
4.08180883561e-11
3.01714138447e-10
3.32444058539e-11
2.82063226165e-10
2.73267977756e-11
2.65708540422e-10
2.26231077596e-11
2.52042718755e-10
1.88251274231e-11
2.40597140877e-10
1.57141290985e-11
2.31006310217e-10
1.31319769342e-11
2.22982286951e-10
1.09622242043e-11
2.16296223263e-10
9.1175934685e-12
2.10764902995e-10
7.53156114899e-12
2.06240822117e-10
6.15261036144e-12
2.02604795051e-10
4.9402418034e-12
1.99760380983e-10
3.86216018885e-12
1.97629636634e-10
2.89225867288e-12
1.96149846725e-10
2.00915335699e-12
1.95270983586e-10
1.1951027318e-12
1.94953716023e-10
4.35200746863e-13
1.95167836038e-10
-2.83232497245e-13
1.95891004477e-10
-9.71113582768e-13
1.97107741402e-10
-1.63794897809e-12
1.98808605075e-10
-2.29210764476e-12
2.00989513376e-10
-2.94102712988e-12
2.03651168599e-10
-3.59136418686e-12
2.06798552312e-10
-4.24909797096e-12
2.10440459146e-10
-4.91958992892e-12
2.14589039876e-10
-5.60760179437e-12
2.19259322863e-10
-6.31727066347e-12
2.24468681841e-10
-7.05203844892e-12
2.30236214718e-10
-7.81453149041e-12
2.36581995775e-10
-8.60638552282e-12
2.43526160343e-10
-9.42801124869e-12
2.51087780362e-10
-1.02782974838e-11
2.5928348993e-10
-1.115425225e-11
2.68125826277e-10
-1.20505884992e-11
2.77621263417e-10
-1.29592704791e-11
2.87767937359e-10
-1.38690498623e-11
2.98553093226e-10
-1.47650368772e-11
3.09950328481e-10
-1.56283695531e-11
3.2191675981e-10
-1.64360603894e-11
3.34390300713e-10
-1.71611095287e-11
3.47287293439e-10
-1.777297094e-11
3.60500781407e-10
-1.82384380695e-11
3.73899724623e-10
-1.85229767588e-11
3.87329441149e-10
-1.85924804744e-11
4.00613501624e-10
-1.84153677583e-11
4.13557215686e-10
-1.79648963309e-11
4.25952741048e-10
-1.72215385677e-11
4.37585719363e-10
-1.61752385817e-11
4.48243194248e-10
-1.4827333357e-11
4.5772237987e-10
-1.31918595377e-11
4.65839634972e-10
-1.12959148229e-11
4.7243880287e-10
-9.17876784008e-12
4.77398002486e-10
-6.88958510416e-12
4.80634085311e-10
-4.48396585871e-12
4.8210433623e-10
-2.01983566432e-12
4.81805492847e-10
4.46535787101e-13
4.79770619919e-10
2.86368592016e-12
4.76064647024e-10
5.18685996274e-12
4.70779364069e-10
7.3787044658e-12
4.6402848285e-10
9.40905107071e-12
4.55943140018e-10
1.1254154683e-11
4.46667973637e-10
1.28957590956e-11
4.36357714944e-10
1.43202818952e-11
4.25174112262e-10
1.55183019742e-11
4.13282960593e-10
1.64844132485e-11
4.00851039298e-10
1.72173936266e-11
3.88042854349e-10
1.77205435459e-11
3.75017209998e-10
1.8001992349e-11
3.61923766821e-10
1.80747692806e-11
3.4889983576e-10
1.79564938971e-11
3.36067687463e-10
1.76686412423e-11
3.23532613368e-10
1.72354467659e-11
3.11381879319e-10
1.66825989807e-11
2.99684592883e-10
1.60359021789e-11
2.88492395722e-10
1.5320076193e-11
2.77840813884e-10
1.455781002e-11
2.67751061091e-10
1.37691235477e-11
2.58232089513e-10
1.2971034773e-11
2.4928270829e-10
1.2177490321e-11
2.40893630641e-10
1.13994965162e-11
2.33049353774e-10
1.06453845042e-11
2.25729816332e-10
9.92114960302e-12
2.18911809966e-10
9.23081764715e-12
2.12570145902e-10
8.57680449736e-12
2.06678592139e-10
7.96024748686e-12
2.01210606453e-10
7.38129727575e-12
1.9613989334e-10
6.83936600816e-12
1.9144081419e-10
6.33333224579e-12
1.87088677391e-10
5.86170618242e-12
1.83059932941e-10
5.42275989015e-12
1.79332291962e-10
5.01462799399e-12
1.75884788847e-10
4.63538390005e-12
1.72697799801e-10
4.28309641639e-12
1.69753029398e-10
3.95587088643e-12
1.67033473539e-10
3.65187847466e-12
1.64523365798e-10
3.36937654994e-12
1.62208111655e-10
3.10672272598e-12
1.60074214255e-10
2.86238460508e-12
1.58109193408e-10
2.63494706065e-12
1.56301499001e-10
2.42311859223e-12
1.5464041836e-10
2.22573826691e-12
1.53115976604e-10
2.04178467907e-12
1.51718827414e-10
1.87038855397e-12
1.50440130951e-10
1.71085079954e-12
1.49271413727e-10
1.56266829491e-12
1.48204404018e-10
1.42557026119e-12
1.47230833919e-10
1.29956901131e-12
1.46342197169e-10
1.18503004095e-12
1.45529448895e-10
1.08276810118e-12
1.44782631735e-10
9.94177800135e-13
1.44090412668e-10
9.21409187485e-13
1.4343952276e-10
8.67598696304e-13
1.42814119142e-10
8.37158198642e-13
1.42195168341e-10
8.36091549679e-13
1.41560162454e-10
8.72193486363e-13
1.40884041839e-10
9.54605483113e-13
1.40143578628e-10
1.09097223566e-12
1.39331915818e-10
1.27530103826e-12
1.44391594749e-12
9.76220388356e-10
1.89958515049e-10
9.62959722387e-10
3.06400399307e-10
9.06023707649e-10
3.00236010133e-10
8.33575253498e-10
2.58230020892e-10
7.60610542416e-10
2.12796156903e-10
6.9354339283e-10
1.73094531946e-10
6.34447299324e-10
1.40684724574e-10
5.8342923437e-10
1.14834173961e-10
5.39808226879e-10
9.43132485494e-11
5.02664442072e-10
7.79618821858e-11
4.71077697063e-10
6.4831159903e-11
4.442192147e-10
5.4185289153e-11
4.2137704809e-10
4.54652833325e-11
4.01953512736e-10
3.82486716419e-11
3.8545235029e-10
3.22153002848e-11
3.71463472178e-10
2.71208636106e-11
3.5964850082e-10
2.2777203927e-11
3.49728216026e-10
1.90378863708e-11
3.41472097969e-10
1.5787687038e-11
3.34689794929e-10
1.29349208986e-11
3.29224230742e-10
1.0405813138e-11
3.24946058478e-10
8.14033919532e-12
3.2174919945e-10
6.08912403349e-12
3.19547248767e-10
4.21110991784e-12
3.18270570452e-10
2.47178648562e-12
3.17863939955e-10
8.4183621547e-13
3.18284621336e-10
-7.03909326827e-13
3.19500786623e-10
-2.18727473764e-12
3.21490205379e-10
-3.6273639338e-12
3.24239145217e-10
-5.04104397166e-12
3.27741431167e-10
-6.44330971622e-12
3.31997618151e-10
-7.84754785974e-12
3.37014235729e-10
-9.26571209014e-12
3.42803065126e-10
-1.07084155613e-11
3.49380409598e-10
-1.21849419315e-11
3.56766316921e-10
-1.37031728632e-11
3.64983711381e-10
-1.52694266717e-11
3.7405738869e-10
-1.68882011784e-11
3.84012825333e-10
-1.85618127963e-11
3.94874750848e-10
-2.02899253442e-11
4.06665432744e-10
-2.20689655403e-11
4.1940262694e-10
-2.38914298936e-11
4.33097157673e-10
-2.57450996403e-11
4.47750108735e-10
-2.76121986717e-11
4.63349638513e-10
-2.94685532716e-11
4.79867473774e-10
-3.12828421425e-11
4.97255194538e-10
-3.30160566371e-11
5.15440490883e-10
-3.46213194066e-11
5.34323647434e-10
-3.60442252586e-11
5.53774581518e-10
-3.72238609554e-11
5.73630811846e-10
-3.8094621494e-11
5.93696751007e-10
-3.85888666617e-11
6.13744683498e-10
-3.8640362051e-11
6.33517710942e-10
-3.81883433538e-11
6.52734822928e-10
-3.71819565007e-11
6.71098105081e-10
-3.55847698666e-11
6.88301929608e-10
-3.33790143807e-11
7.04043787132e-10
-3.05691453137e-11
7.1803618766e-10
-2.7184218889e-11
7.30018793355e-10
-2.32784847185e-11
7.39769696617e-10
-1.8929641792e-11
7.47114653824e-10
-1.42345202301e-11
7.51933243668e-10
-9.30254162719e-12
7.54161386672e-10
-4.24797289043e-12
7.53790310214e-10
8.17609470182e-13
7.50862646921e-10
5.79133814736e-12
7.45466695915e-10
1.0582791913e-11
7.37729859418e-10
1.51155146825e-11
7.27812027292e-10
1.93268504388e-11
7.15899393569e-10
2.31667502793e-11
7.02198894139e-10
2.65962160596e-11
6.86933223014e-10
2.95859074891e-11
6.70336228948e-10
3.21152485862e-11
6.52648437024e-10
3.4172157065e-11
6.34112471012e-10
3.57533119667e-11
6.1496826516e-10
3.6864703255e-11
5.95448111488e-10
3.75221022802e-11
5.75771752418e-10
3.77510877938e-11
5.56141843554e-10
3.75863659559e-11
5.36740146159e-10
3.70703060085e-11
5.17724751771e-10
3.62508129529e-11
4.9922851717e-10
3.51788099027e-11
4.8135873466e-10
3.39056655116e-11
4.64197922072e-10
3.24808739319e-11
4.47805516978e-10
3.09502043671e-11
4.3222021019e-10
2.93544233291e-11
4.17462651557e-10
2.77285897893e-11
4.03538291312e-10
2.61018498749e-11
3.90440170159e-10
2.44976195035e-11
3.78151524735e-10
2.29340337966e-11
3.66648126653e-10
2.14245532024e-11
3.55900314126e-10
1.99786368832e-11
3.45874707885e-10
1.86024183106e-11
3.36535623554e-10
1.72993398685e-11
3.27846207143e-10
1.60707219684e-11
3.19769325919e-10
1.49162554491e-11
3.12268250324e-10
1.38344158333e-11
3.05307160557e-10
1.28228035111e-11
2.98851509943e-10
1.18784175574e-11
2.92868272424e-10
1.09978719311e-11
2.87326098704e-10
1.01775633904e-11
2.82195400556e-10
9.41379962652e-12
2.77448380225e-10
8.70289560669e-12
2.73059017586e-10
8.04124481593e-12
2.69003025805e-10
7.42537141176e-12
2.65257782872e-10
6.85196813333e-12
2.61802245106e-10
6.31792432038e-12
2.58616846078e-10
5.82034754296e-12
2.55683383571e-10
5.35658214304e-12
2.5298489502e-10
4.92422748465e-12
2.50505521263e-10
4.52115880657e-12
2.4823035651e-10
4.14555340985e-12
2.46145281914e-10
3.79592530155e-12
2.44236778366e-10
3.47117157423e-12
2.42491713812e-10
3.17063442922e-12
2.4089709926e-10
2.8941830724e-12
2.39439808558e-10
2.64232019279e-12
2.38106258768e-10
2.4163172861e-12
2.36882054661e-10
2.21838128527e-12
2.35751614331e-10
2.05184888777e-12
2.34697822588e-10
1.92138984933e-12
2.33701816926e-10
1.83316334268e-12
2.32743125201e-10
1.79478291296e-12
2.31800588507e-10
1.81473003667e-12
2.3085487255e-10
1.90032153727e-12
2.29893937975e-10
2.0519070754e-12
2.28921862943e-10
2.24737638681e-12
2.40502216632e-12
9.71749892215e-10
1.55708627751e-10
9.86610093764e-10
2.91540207424e-10
9.68015853337e-10
3.18830259694e-10
9.27586033897e-10
2.98659849016e-10
8.77178447168e-10
2.63203752198e-10
8.24319526823e-10
2.25953460843e-10
7.73163648757e-10
1.9184061123e-10
7.25748041143e-10
1.62249790215e-10
6.82889886552e-10
1.37171411819e-10
6.4474295091e-10
1.16108826521e-10
6.11123338057e-10
9.84507814314e-11
5.81693253518e-10
8.36153823124e-11
5.56061283617e-10
7.10972617645e-11
5.33834882911e-10
6.04750807482e-11
5.14646071088e-10
5.14041203373e-11
4.98162437711e-10
4.36045050023e-11
4.84090321691e-10
3.68493277034e-11
4.72174011485e-10
3.09542040241e-11
4.62193087668e-10
2.57686179488e-11
4.53959053592e-10
2.11689616589e-11
4.47311852617e-10
1.70530203422e-11
4.42116566298e-10
1.33356312346e-11
4.38260421966e-10
9.94527353303e-12
4.35650149112e-10
6.82138734003e-12
4.34209678467e-10
3.91226106803e-12
4.33878155371e-10
1.17336258634e-12
4.34608229983e-10
-1.43398133611e-12
4.36364580614e-10
-3.94362344348e-12
4.39122633574e-10
-6.38541562126e-12
4.42867440305e-10
-8.78585004954e-12
4.47592671856e-10
-1.11685411629e-11
4.53299693253e-10
-1.35545696137e-11
4.59996680412e-10
-1.59626999406e-11
4.67697740869e-10
-1.8409476894e-11
4.76421997968e-10
-2.0909199896e-11
4.86192595126e-10
-2.3473770657e-11
4.97035573828e-10
-2.61124055199e-11
5.08978575292e-10
-2.88312020127e-11
5.22049313087e-10
-3.16325488684e-11
5.36273762253e-10
-3.45143713591e-11
5.51674011966e-10
-3.74692103244e-11
5.6826573442e-10
-4.04831452885e-11
5.86055235427e-10
-4.35345911161e-11
6.05036074241e-10
-4.65930251585e-11
6.25185274626e-10
-4.96177382538e-11
6.4645919815e-10
-5.25567469521e-11
6.68789215183e-10
-5.53460514864e-11
6.92077387215e-10
-5.79094656934e-11
7.16192459361e-10
-6.01592681179e-11
7.40966542929e-10
-6.19979118075e-11
7.66192926757e-10
-6.33209694243e-11
7.91625474081e-10
-6.40213752676e-11
8.16980022126e-10
-6.39948690738e-11
8.41938101669e-10
-6.31463802049e-11
8.66153144387e-10
-6.1396955651e-11
8.89259172136e-10
-5.86907540639e-11
9.10881779484e-10
-5.50015792059e-11
9.30651022555e-10
-5.03383479516e-11
9.48215578309e-10
-4.47487374086e-11
9.6325722503e-10
-3.83200984795e-11
9.75504373875e-10
-3.11767629701e-11
9.84743211319e-10
-2.34733361791e-11
9.90825172154e-10
-1.53844878337e-11
9.93670026436e-10
-7.09281985414e-12
9.9326468521e-10
1.22295053633e-12
9.89658588646e-10
9.39742720204e-12
9.82956941855e-10
1.72844242406e-11
9.73313000689e-10
2.47594350653e-11
9.60920291407e-10
3.17195334374e-11
9.46005296245e-10
3.80817146231e-11
9.28820809387e-10
4.37806686189e-11
9.09639909843e-10
4.87667703652e-11
8.88750327342e-10
5.30047931687e-11
8.664489126e-10
5.64735337423e-11
8.43035961947e-10
5.9166225438e-11
8.18809275704e-10
6.10913541369e-11
7.9405801699e-10
6.22733282352e-11
7.69056632155e-10
6.27524431166e-11
7.44059232192e-10
6.25837401111e-11
7.19294871838e-10
6.1834644577e-11
6.94964088831e-10
6.05815783397e-11
6.71236910597e-10
5.89059747097e-11
6.48252349245e-10
5.68902175126e-11
6.26119239296e-10
5.46139784046e-11
6.04918157441e-10
5.21512843147e-11
5.84704110617e-10
4.95684714606e-11
5.65509679467e-10
4.69230250465e-11
5.47348342536e-10
4.42631932836e-11
5.30217764035e-10
4.16282064074e-11
5.14102890093e-10
3.90489176298e-11
4.98978755633e-10
3.65486986281e-11
4.84812950924e-10
3.41444532434e-11
4.71567732744e-10
3.18476484815e-11
4.59201789582e-10
2.96652950527e-11
4.47671686272e-10
2.76008370769e-11
4.3693302172e-10
2.56549313559e-11
4.26941337167e-10
2.38261111334e-11
4.1765281206e-10
2.21113386272e-11
4.09024782754e-10
2.05064560518e-11
4.01016115532e-10
1.90065474629e-11
3.93587461792e-10
1.76062245472e-11
3.86701418867e-10
1.62998490715e-11
3.80322616401e-10
1.50817037299e-11
3.74417744255e-10
1.39461217905e-11
3.68955535096e-10
1.28875846333e-11
3.63906711636e-10
1.19007949456e-11
3.59243906409e-10
1.09807322646e-11
3.54941559518e-10
1.01226965816e-11
3.50975798277e-10
9.32234503724e-12
3.47324300814e-10
8.57572617103e-12
3.43966144588e-10
7.87931589472e-12
3.40881639409e-10
7.23005914631e-12
3.38052143847e-10
6.62542117599e-12
3.3545986315e-10
6.06345238171e-12
3.33087626958e-10
5.54287057665e-12
3.30918645726e-10
5.06316413627e-12
3.28936247348e-10
4.62471831384e-12
3.27123600216e-10
4.22896409329e-12
3.25463438484e-10
3.8785426512e-12
3.23937821728e-10
3.57746525514e-12
3.22527989791e-10
3.33122140914e-12
3.2121442e-10
3.14673280503e-12
3.19977266034e-10
3.03193666011e-12
3.18797453502e-10
2.99454252647e-12
3.17658783008e-10
3.03899219752e-12
3.16551116641e-10
3.15957373853e-12
3.15472690199e-10
3.32580313949e-12
3.45686842594e-12
9.63934086651e-10
1.29274546119e-10
9.87655115579e-10
2.67819188215e-10
9.89688331741e-10
3.16797052682e-10
9.72119600648e-10
3.16228588819e-10
9.41894057784e-10
2.93429303644e-10
9.05056652984e-10
2.62790874201e-10
8.65800864243e-10
2.31096408556e-10
8.26772847029e-10
2.01277816053e-10
7.89528082579e-10
1.74416184919e-10
7.54905036883e-10
1.50731880861e-10
7.23289797394e-10
1.30066029527e-10
6.94792898311e-10
1.12112289924e-10
6.69363861354e-10
9.65263071351e-11
6.46863842762e-10
8.29751075946e-11
6.27110865193e-10
7.11571059609e-11
6.0990740898e-10
6.08079690186e-11
5.95056790936e-10
5.1699953253e-11
5.82372493659e-10
4.36385084507e-11
5.7168311462e-10
3.64580037279e-11
5.62834633843e-10
3.00174487011e-11
5.55691074562e-10
2.41965853584e-11
5.50134231443e-10
1.88924794895e-11
5.46062886329e-10
1.40166231268e-11
5.43391769227e-10
9.49250820119e-12
5.42050419463e-10
5.25361382079e-12
5.41982036342e-10
1.24174787179e-12
5.4314236743e-10
-2.59431111366e-12
5.45498651055e-10
-6.29990664432e-12
5.49028625584e-10
-9.91539061124e-12
5.53719594509e-10
-1.34768203175e-11
5.59567530426e-10
-1.70164792589e-11
5.66576196892e-10
-2.05632390394e-11
5.74756261954e-10
-2.41427686388e-11
5.84124372171e-10
-2.77775913058e-11
5.94702151662e-10
-3.14869839655e-11
6.06515085861e-10
-3.52867096266e-11
6.195912454e-10
-3.91885697716e-11
6.33959801021e-10
-4.31997620198e-11
6.49649277294e-10
-4.73220288839e-11
6.66685491003e-10
-5.15505878329e-11
6.85089121541e-10
-5.58728422806e-11
7.04872866521e-10
-6.026688997e-11
7.26038148992e-10
-6.46998711898e-11
7.48571365389e-10
-6.91262366942e-11
7.72439699207e-10
-7.3486064404e-11
7.97586576894e-10
-7.77036138646e-11
8.2392691143e-10
-8.16863718973e-11
8.51342364361e-10
-8.53249009735e-11
8.7967695262e-10
-8.84938351214e-11
9.08733419875e-10
-9.10543542109e-11
9.38270862958e-10
-9.28583842054e-11
9.68004128494e-10
-9.37546093041e-11
9.97605450982e-10
-9.35961572889e-11
1.02670868623e-09
-9.22495789401e-11
1.05491631882e-09
-8.96045502291e-11
1.08180922741e-09
-8.5583623945e-11
1.10695900417e-09
-8.01513175637e-11
1.12994243656e-09
-7.33217432566e-11
1.15035750673e-09
-6.51637729347e-11
1.16783989703e-09
-5.58024576494e-11
1.18207855735e-09
-4.54153967495e-11
1.19282860282e-09
-3.42233605675e-11
1.19991993951e-09
-2.24758096387e-11
1.2032607005e-09
-1.04335725941e-11
1.20283563677e-09
1.64801569062e-12
1.198700589e-09
1.35324697537e-11
1.19097462672e-09
2.5010375041e-11
1.17983127887e-09
3.59027658564e-11
1.16548982752e-09
4.60609629504e-11
1.14820720389e-09
5.53643125914e-11
1.12827066734e-09
6.37171766853e-11
1.10599116963e-09
7.1046237839e-11
1.08169712311e-09
7.72988087268e-11
1.0557282258e-09
8.24424004151e-11
1.02842904579e-09
8.64653760501e-11
1.0001422214e-09
8.93781512132e-11
9.71201359292e-10
9.12141658072e-11
9.41923951512e-10
9.20298296728e-11
9.12604802078e-10
9.19028720069e-11
8.83510495043e-10
9.09289379795e-11
8.54875337783e-10
8.92167259565e-11
8.26899016747e-10
8.68822900398e-11
7.99745975306e-10
8.40432570306e-11
7.73546327364e-10
8.0813627947e-11
7.48397992796e-10
7.72996236849e-11
7.24369688914e-10
7.3596782948e-11
7.01504422675e-10
6.97883012804e-11
6.79823178482e-10
6.59444494072e-11
6.59328565038e-10
6.21228332828e-11
6.40008254811e-10
5.83692423461e-11
6.2183811232e-10
5.47188562708e-11
6.04784957474e-10
5.11976235207e-11
5.8880894775e-10
4.78236735992e-11
5.73865588419e-10
4.46086694457e-11
5.59907396473e-10
4.15590435284e-11
5.46885252575e-10
3.86770890041e-11
5.34749479387e-10
3.59618971836e-11
5.23450684615e-10
3.34101452639e-11
5.12940405426e-10
3.10167460565e-11
5.031715874e-10
2.87753752188e-11
4.94098927625e-10
2.66788929779e-11
4.85679107268e-10
2.47196770277e-11
4.77870935344e-10
2.28898822513e-11
4.70635421504e-10
2.11816412771e-11
4.63935792666e-10
1.95872182474e-11
4.57737465121e-10
1.80991264667e-11
4.52007981487e-10
1.67102191628e-11
4.46716919433e-10
1.54137612651e-11
4.41835777439e-10
1.42034891109e-11
4.37337841086e-10
1.30736641256e-11
4.33198032233e-10
1.20191259491e-11
4.29392742264e-10
1.10353499777e-11
4.25899650091e-10
1.01185139378e-11
4.22697525192e-10
9.26557764301e-12
4.19766016536e-10
8.47437941896e-12
4.17085429385e-10
7.7437513333e-12
4.14636494825e-10
7.07365281372e-12
4.12400141543e-10
6.46531723315e-12
4.10357287349e-10
5.92139664778e-12
4.0848868014e-10
5.44607223153e-12
4.06774836182e-10
5.04506512955e-12
4.0519614784e-10
4.7254209367e-12
4.03733259341e-10
4.49482503435e-12
4.02367815583e-10
4.3599863063e-12
4.01083587247e-10
4.32322073279e-12
3.99867454713e-10
4.37570658416e-12
3.98707845297e-10
4.48541286812e-12
4.5800686276e-12
9.57543458328e-10
1.09231092897e-10
9.82524945136e-10
2.42837711062e-10
9.94987268666e-10
3.04334738232e-10
9.92189411531e-10
3.1902645457e-10
9.77280628986e-10
3.08338094673e-10
9.54365305475e-10
2.8570620618e-10
9.2689720216e-10
2.58564520375e-10
8.97411096164e-10
2.30763930591e-10
8.67646060455e-10
2.0418122919e-10
8.38738539985e-10
1.79639409876e-10
8.11394428656e-10
1.57410149349e-10
7.86022108691e-10
1.37484618286e-10
7.62829517272e-10
1.19718906814e-10
7.41892907519e-10
1.03911725425e-10
7.23204687414e-10
8.98453339162e-11
7.0670626247e-10
7.73064015332e-11
6.92310316197e-10
6.60959067623e-11
6.79915735168e-10
5.60330963199e-11
6.69417454439e-10
4.69562908408e-11
6.60712819483e-10
3.87220895136e-11
6.5370557548e-10
3.12038346218e-11
6.48308252394e-10
2.42898071637e-11
6.4444347487e-10
1.78814044954e-11
6.42044559101e-10
1.18914269947e-11
6.41055643032e-10
6.24253202793e-12
6.41431515392e-10
8.65876696827e-13
6.431372528e-10
-4.3000483442e-12
6.4614773029e-10
-9.31038500762e-12
6.50447060488e-10
-1.42147227607e-11
6.56027974468e-10
-1.90577373364e-11
6.62891152125e-10
-2.38796610239e-11
6.71044498696e-10
-2.87165907467e-11
6.80502354478e-10
-3.36006305091e-11
6.91284616806e-10
-3.85598605639e-11
7.03415746461e-10
-4.36181212433e-11
7.16923624202e-10
-4.87945954922e-11
7.31838217229e-10
-5.41031711935e-11
7.48190010012e-10
-5.95515631886e-11
7.66008149598e-10
-6.51401765335e-11
7.85318252914e-10
-7.08606985331e-11
8.06139823805e-10
-7.66944194943e-11
8.28483232372e-10
-8.26103033826e-11
8.52346220729e-10
-8.85628625032e-11
8.77709920795e-10
-9.44899373983e-11
9.04534404352e-10
-1.00310545885e-10
9.32753837614e-10
-1.05923041955e-10
9.62271384201e-10
-1.11203909905e-10
9.92954092852e-10
-1.16007597366e-10
1.02462811366e-09
-1.20167839834e-10
1.05707469708e-09
-1.23500917607e-10
1.09002751892e-09
-1.25811182145e-10
1.12317191246e-09
-1.26898975235e-10
1.15614654476e-09
-1.2657075863e-10
1.18854793842e-09
-1.2465093876e-10
1.21993803379e-09
-1.20994609572e-10
1.24985476745e-09
-1.15500320231e-10
1.27782545944e-09
-1.08121971834e-10
1.30338264467e-09
-9.88788915462e-11
1.32608174874e-09
-8.78628420256e-11
1.34551957751e-09
-7.52402546352e-11
1.3613519923e-09
-6.12477841228e-11
1.37330866139e-09
-4.61800076673e-11
1.38120283577e-09
-3.03699682645e-11
1.38493494078e-09
-1.41656686179e-11
1.38449019573e-09
2.09276281995e-12
1.37993179171e-09
1.80908691312e-11
1.37139168403e-09
3.35504718885e-11
1.3590607017e-09
4.82337319183e-11
1.34317901124e-09
6.19426326593e-11
1.32402743875e-09
7.451586087e-11
1.30191977424e-09
8.58248146457e-11
1.27719588133e-09
9.57701029276e-11
1.25021523609e-09
1.04279425959e-10
1.22135045461e-09
1.11307154714e-10
1.19098043511e-09
1.16835370102e-10
1.15948292545e-09
1.2087563797e-10
1.12722660742e-09
1.23470464098e-10
1.09456309207e-09
1.24693328899e-10
1.06181943641e-09
1.24646515454e-10
1.02929183963e-09
1.23456526593e-10
9.97241044473e-10
1.21267516998e-10
9.65889715298e-10
1.18233619046e-10
9.35421781524e-10
1.14511194348e-10
9.05983503148e-10
1.10251913288e-10
8.77685875326e-10
1.05597261502e-10
8.50607944396e-10
1.00674726492e-10
8.24800634382e-10
9.55956260557e-11
8.00290751644e-10
9.04543485931e-11
7.77084918196e-10
8.53286843901e-11
7.5517326453e-10
8.0280914445e-11
7.34532780302e-10
7.53593592838e-11
7.15130273633e-10
7.06001489594e-11
6.9692492707e-10
6.60290385874e-11
6.79870463229e-10
6.16631510959e-11
6.63916948264e-10
5.75125754611e-11
6.49012269388e-10
5.35817838352e-11
6.35103325797e-10
4.98708555928e-11
6.22136972206e-10
4.63765124521e-11
6.10060752133e-10
4.30929784671e-11
5.98823454714e-10
4.00126837063e-11
5.88375525167e-10
3.71268323476e-11
5.78669354991e-10
3.44258558241e-11
5.69659474281e-10
3.18997704445e-11
5.6130266491e-10
2.95384570692e-11
5.53558010186e-10
2.73318784192e-11
5.46386893654e-10
2.5270247562e-11
5.39752957293e-10
2.33441593003e-11
5.33622027097e-10
2.15446945408e-11
5.27962012293e-10
1.98635063896e-11
5.2274278281e-10
1.82928955619e-11
5.17936028459e-10
1.68258818136e-11
5.13515102282e-10
1.54562772984e-11
5.09454850006e-10
1.41787670549e-11
5.05731427293e-10
1.29890009485e-11
5.02322106907e-10
1.18837002008e-11
4.99205078896e-10
1.08607795827e-11
4.96359248983e-10
9.91948284327e-12
4.9376404356e-10
9.06052267647e-12
4.91399234623e-10
8.2862055344e-12
4.89244804589e-10
7.60050216342e-12
4.87280878961e-10
7.00899063093e-12
4.85487761225e-10
6.51853855211e-12
4.83846099921e-10
6.13648627271e-12
4.82337172341e-10
5.8689139388e-12
4.80943095941e-10
5.71729733966e-12
4.79646248446e-10
5.67255438826e-12
4.78425968411e-10
5.70569320951e-12
5.75662769588e-12
9.52925757087e-10
9.3805340838e-11
9.76466787995e-10
2.19296689701e-10
9.93767872322e-10
2.87033662889e-10
1.00011781042e-09
3.12676524992e-10
9.96147246305e-10
3.12308667175e-10
9.84266755681e-10
2.97586705177e-10
9.67018576111e-10
2.75812708356e-10
9.46534532737e-10
2.5124798242e-10
9.24444457447e-10
2.26271312953e-10
9.01933334132e-10
2.02150541645e-10
8.79832241106e-10
1.79511250769e-10
8.58704500452e-10
1.58612367228e-10
8.38916670289e-10
1.3950674512e-10
8.20693740006e-10
1.22134663658e-10
8.04160796028e-10
1.06378285603e-10
7.8937393199e-10
9.20932729865e-11
7.76342907818e-10
7.91269379984e-11
7.65047602194e-10
6.73284085947e-11
7.55449852888e-10
5.6554046317e-11
7.47501898473e-10
4.66700495457e-11
7.41152331529e-10
3.75534065549e-11
7.36350239155e-10
2.90919038173e-11
7.33048028989e-10
2.11836181518e-11
7.31203305596e-10
1.37361530084e-11
7.30780062831e-10
6.66577646393e-12
7.31749384052e-10
-1.03443877444e-13
7.34089783317e-10
-6.6404480505e-12
7.37787284899e-10
-1.30078881777e-11
7.4283531713e-10
-1.92627577647e-11
7.49234449686e-10
-2.54568738727e-11
7.56992001888e-10
-3.1637218412e-11
7.6612153212e-10
-3.78461273414e-11
7.76642206895e-10
-4.41213127621e-11
7.88578038181e-10
-5.04957003469e-11
8.01956968944e-10
-5.69970613855e-11
8.16809779048e-10
-6.36474156762e-11
8.33168776464e-10
-7.04621791667e-11
8.51066232261e-10
-7.74490297498e-11
8.70532512202e-10
-8.46064671288e-11
8.91593853694e-10
-9.1922050211e-11
9.14269735152e-10
-9.93703102767e-11
9.38569787258e-10
-1.06910363527e-10
9.6449020418e-10
-1.14483285734e-10
9.92009631073e-10
-1.22009368425e-10
1.02108453593e-09
-1.29385452261e-10
1.0516441243e-09
-1.36482628815e-10
1.08358492899e-09
-1.43144709689e-10