/*--------------------------------*- C++ -*----------------------------------*\
  =========                 |
  \\      /  F ield         | OpenFOAM: The Open Source CFD Toolbox
   \\    /   O peration     | Website:  https://openfoam.org
    \\  /    A nd           | Version:  7
     \\/     M anipulation  |
\*---------------------------------------------------------------------------*/
FoamFile
{
    version     2.0;
    format      ascii;
    class       volVectorField;
    location    "1860";
    object      U;
}
// * * * * * * * * * * * * * * * * * * * * * * * * * * * * * * * * * * * * * //

dimensions      [0 1 -1 0 0 0 0];

internalField   nonuniform List<vector> 
8192
(
(0.00104346744924 0.000156532550756 0)
(0.000759341252438 0.000127593649297 0)
(0.000549353332633 8.23942769372e-05 0)
(0.000414104210179 5.28548516993e-05 0)
(0.000326288039169 3.49613252746e-05 0)
(0.00026725461743 2.40721023866e-05 0)
(0.00022593990475 1.7242616225e-05 0)
(0.00019590763446 1.27896600446e-05 0)
(0.000173350981103 9.76699936093e-06 0)
(0.000155948223916 7.63576394505e-06 0)
(0.000142231483886 6.08098226665e-06 0)
(0.000131237947071 4.91256077206e-06 0)
(0.000122313608371 4.01178417421e-06 0)
(0.000114999880619 3.30194982132e-06 0)
(0.000108966070021 2.73186699321e-06 0)
(0.000103967881264 2.26632793118e-06 0)
(9.98211163857e-05 1.88044303949e-06 0)
(9.63845056902e-05 1.55617365085e-06 0)
(9.35481889895e-05 1.28014892495e-06 0)
(9.122579197e-05 1.04225382795e-06 0)
(8.93488511134e-05 8.34692601227e-07 0)
(8.78628109861e-05 6.51352919821e-07 0)
(8.67240984586e-05 4.87364809267e-07 0)
(8.58979501485e-05 3.38788499969e-07 0)
(8.53567769661e-05 2.02389476161e-07 0)
(8.50789184668e-05 7.54736144676e-08 0)
(8.50476846562e-05 -4.42354012775e-08 0)
(8.52506124141e-05 -1.58688119508e-07 0)
(8.56788834572e-05 -2.69578814159e-07 0)
(8.63268654774e-05 -3.78399173072e-07 0)
(8.71917477813e-05 -4.86479104427e-07 0)
(8.82732479021e-05 -5.95016909799e-07 0)
(8.95733696589e-05 -7.05100551383e-07 0)
(9.10961958188e-05 -8.17720995428e-07 0)
(9.28476997591e-05 -9.33777862392e-07 0)
(9.48355605835e-05 -1.05407723765e-06 0)
(9.70689653246e-05 -1.17932094308e-06 0)
(9.95583802366e-05 -1.31008636023e-06 0)
(0.000102315270992 -1.44679550996e-06 0)
(0.000105351749057 -1.58967215516e-06 0)
(0.000108680119089 -1.73868571987e-06 0)
(0.000112312300498 -1.89348153194e-06 0)
(0.000116259096279 -2.05329786699e-06 0)
(0.000120529285221 -2.21687225807e-06 0)
(0.000125128520971 -2.38234206901e-06 0)
(0.000130058035155 -2.5471479525e-06 0)
(0.000135313162777 -2.70795269351e-06 0)
(0.000140881737195 -2.86059191903e-06 0)
(0.000146742437368 -3.00007568047e-06 0)
(0.000152863208294 -3.12066004039e-06 0)
(0.000159199909901 -3.21600395945e-06 0)
(0.000165695372441 -3.27941888205e-06 0)
(0.000172279040062 -3.304207363e-06 0)
(0.000178867365535 -3.28407555402e-06 0)
(0.000185365079555 -3.21359533052e-06 0)
(0.000191667404137 -3.08868620822e-06 0)
(0.000197663215155 -2.90708261609e-06 0)
(0.000203239081292 -2.6687429778e-06 0)
(0.000208284003875 -2.37614155557e-06 0)
(0.000212694548565 -2.03436842084e-06 0)
(0.000216379912927 -1.65096539116e-06 0)
(0.000219266366736 -1.23546279579e-06 0)
(0.000221300504945 -7.98655397255e-07 0)
(0.00022245091261 -3.51738399155e-07 0)
(0.000222708133153 9.45251971081e-08 0)
(0.000222083160105 5.30448475326e-07 0)
(0.000220604923819 9.47781730493e-07 0)
(0.000218317320364 1.33980914685e-06 0)
(0.000215276239644 1.70125289153e-06 0)
(0.000211546894668 2.02806784838e-06 0)
(0.000207201586802 2.31721091424e-06 0)
(0.000202317893825 2.5664488754e-06 0)
(0.000196977165363 2.7742431803e-06 0)
(0.000191263159683 2.93972377269e-06 0)
(0.000185260657207 3.06273858118e-06 0)
(0.000179053933054 3.14394494519e-06 0)
(0.000172725051164 3.18489666682e-06 0)
(0.000166352034742 3.18808058679e-06 0)
(0.000160007047175 3.1568695952e-06 0)
(0.000153754760495 3.09538202809e-06 0)
(0.000147651084169 3.00826200853e-06 0)
(0.000141742379044 2.90041389826e-06 0)
(0.000136065207945 2.77673125328e-06 0)
(0.000130646597436 2.64185666395e-06 0)
(0.000125504724357 2.49999716997e-06 0)
(0.000120649905521 2.35480567045e-06 0)
(0.000116085760615 2.20932632774e-06 0)
(0.000111810430762 2.0659934814e-06 0)
(0.000107817760042 1.92666979698e-06 0)
(0.000104098376135 1.79270897843e-06 0)
(0.000100640633503 1.66503052833e-06 0)
(9.74314046346e-05 1.54419691234e-06 0)
(9.44567209218e-05 1.43048676861e-06 0)
(9.17022749057e-05 1.32396032413e-06 0)
(8.9153801093e-05 1.22451540804e-06 0)
(8.67973545185e-05 1.13193368821e-06 0)
(8.46195059382e-05 1.04591780371e-06 0)
(8.26074709024e-05 9.66120351577e-07 0)
(8.07491876868e-05 8.9216603804e-07 0)
(7.90333566152e-05 8.23668139273e-07 0)
(7.74494509323e-05 7.60240484158e-07 0)
(7.59877072805e-05 7.0150587253e-07 0)
(7.4639101988e-05 6.47101839925e-07 0)
(7.3395317866e-05 5.9668438862e-07 0)
(7.22487049425e-05 5.49930314442e-07 0)
(7.11922375616e-05 5.06538520745e-07 0)
(7.02194694274e-05 4.66230753125e-07 0)
(6.93244875093e-05 4.28752010298e-07 0)
(6.85018651119e-05 3.93870962486e-07 0)
(6.77466138953e-05 3.61380589284e-07 0)
(6.70541340687e-05 3.3109936209e-07 0)
(6.64201614094e-05 3.0287324361e-07 0)
(6.58407090146e-05 2.76578948631e-07 0)
(6.53120007825e-05 2.5212896115e-07 0)
(6.48303923025e-05 2.29479102062e-07 0)
(6.43922730003e-05 2.08639712326e-07 0)
(6.39939405976e-05 1.89692150704e-07 0)
(6.36314347116e-05 1.72813160487e-07 0)
(6.33003096671e-05 1.58311287187e-07 0)
(6.2995315624e-05 1.46682149293e-07 0)
(6.27099388041e-05 1.38694065859e-07 0)
(6.24357208328e-05 1.3552331843e-07 0)
(6.2161226598e-05 1.38970370602e-07 0)
(6.18704555331e-05 1.5180022912e-07 0)
(6.15404246481e-05 1.78230329449e-07 0)
(6.11378685532e-05 2.24325645271e-07 0)
(6.06168147483e-05 2.96728257611e-07 0)
(5.99393686106e-05 3.80718116994e-07 0)
(0.00121017805912 0.000302887045755 0)
(0.00116034035082 0.000315203072383 0)
(0.0010270068753 0.000238106268076 0)
(0.000887643827659 0.000171755048738 0)
(0.000767067699457 0.000124453444976 0)
(0.000668751499842 9.19296214703e-05 0)
(0.000589991992699 6.94593344455e-05 0)
(0.000526965258329 5.36319641025e-05 0)
(0.000476236596889 4.2210027888e-05 0)
(0.000435072766946 3.3759340493e-05 0)
(0.000401389528743 2.73574020131e-05 0)
(0.000373617513352 2.24017113484e-05 0)
(0.000350573930615 1.84905731404e-05 0)
(0.000331360805873 1.53500313721e-05 0)
(0.000315289510164 1.27889096163e-05 0)
(0.0003018262087 1.06707931691e-05 0)
(0.000290552702187 8.89626653027e-06 0)
(0.000281138246537 7.39143347069e-06 0)
(0.000273319120805 6.1003480603e-06 0)
(0.000266883664072 4.97992445928e-06 0)
(0.000261661194988 3.9964473554e-06 0)
(0.000257513712661 3.12313544068e-06 0)
(0.000254329611275 2.33841035991e-06 0)
(0.00025201886935 1.62464664845e-06 0)
(0.000250509331399 9.6725522451e-07 0)
(0.00024974380775 3.5400209246e-07 0)
(0.000249677793319 -2.25504199514e-07 0)
(0.000250277657929 -7.8020081248e-07 0)
(0.000251519197362 -1.31786616013e-06 0)
(0.000253386461745 -1.84534806572e-06 0)
(0.000255870795809 -2.36873646755e-06 0)
(0.000258970036464 -2.89348998939e-06 0)
(0.000262687821383 -3.4245232528e-06 0)
(0.000267032967333 -3.96625854994e-06 0)
(0.000272018879374 -4.52264301079e-06 0)
(0.000277662952153 -5.09713046227e-06 0)
(0.00028398592301 -5.69262555038e-06 0)
(0.000291011133798 -6.31138651409e-06 0)
(0.000298763654716 -6.95488224457e-06 0)
(0.000307269219916 -7.62359935432e-06 0)
(0.000316552922052 -8.31679610951e-06 0)
(0.000326637612987 -9.03220297193e-06 0)
(0.000337541962373 -9.76567450646e-06 0)
(0.000349278137404 -1.05108053647e-05 0)
(0.000361849088497 -1.12585339809e-05 0)
(0.000375245459574 -1.19967715539e-05 0)
(0.000389442189892 -1.27101092075e-05 0)
(0.000404394936506 -1.33796705682e-05 0)
(0.000420036518735 -1.39831857788e-05 0)
(0.000436273660257 -1.4495361442e-05 0)
(0.000452984367901 -1.4888604324e-05 0)
(0.000470016323859 -1.51341240077e-05 0)
(0.000487186666094 -1.52033948666e-05 0)
(0.000504283483375 -1.50699109193e-05 0)
(0.000521069259078 -1.47111289823e-05 0)
(0.00053728637231 -1.41104708916e-05 0)
(0.000552664614663 -1.32592353084e-05 0)
(0.000566930504711 -1.21582363263e-05 0)
(0.000579817967436 -1.08189316597e-05 0)
(0.000591079689499 -9.2637539075e-06 0)
(0.000600498200219 -7.52537680881e-06 0)
(0.000607895555428 -5.64479726245e-06 0)
(0.000613140536191 -3.66839354683e-06 0)
(0.000616152589786 -1.64443322432e-06 0)
(0.00061690229061 3.80308100853e-07 0)
(0.000615408712171 2.36320746423e-06 0)
(0.000611734570844 4.26737210665e-06 0)
(0.000605980167099 6.06218000497e-06 0)
(0.000598277022028 7.72304557678e-06 0)
(0.000588781838635 9.23072684552e-06 0)
(0.00057767111274 1.05704967355e-05 0)
(0.000565136440692 1.17314292883e-05 0)
(0.000551380369412 1.27059564438e-05 0)
(0.000536612526627 1.34897482517e-05 0)
(0.000521045759931 1.40818705022e-05 0)
(0.000504892091934 1.44850928145e-05 0)
(0.000488358441182 1.47061717702e-05 0)
(0.000471642225164 1.47559329264e-05 0)
(0.000454927105652 1.46490256894e-05 0)
(0.000438379214863 1.44033124231e-05 0)
(0.000422144192532 1.40389479387e-05 0)
(0.000406345275319 1.35772772459e-05 0)
(0.000391082542209 1.30397086477e-05 0)
(0.000376433272707 1.24467054275e-05 0)
(0.000362453254148 1.18169955828e-05 0)
(0.000349178799984 1.1167044741e-05 0)
(0.000336629216387 1.05107885825e-05 0)
(0.000324809470594 9.85958728683e-06 0)
(0.000313712856916 9.22234756734e-06 0)
(0.000303323510026 8.6057550611e-06 0)
(0.000293618668868 8.01456627426e-06 0)
(0.000284570640831 7.45192020651e-06 0)
(0.000276148451756 6.91964164692e-06 0)
(0.000268319192346 6.41851871572e-06 0)
(0.000261049087099 5.94854566452e-06 0)
(0.000254304319867 5.50912793343e-06 0)
(0.000248051652819 5.09925044101e-06 0)
(0.000242258874612 4.71761230833e-06 0)
(0.000236895110613 4.36273236773e-06 0)
(0.000231931023938 4.03303005543e-06 0)
(0.000227338931718 3.72688618019e-06 0)
(0.000223092856734 3.44268757902e-06 0)
(0.000219168530687 3.17885920724e-06 0)
(0.00021554336188 2.93388661241e-06 0)
(0.000212196377175 2.70633130641e-06 0)
(0.00020910814557 2.49484106537e-06 0)
(0.000206260688582 2.29815690038e-06 0)
(0.000203637380904 2.11511812911e-06 0)
(0.000201222843141 1.94466686151e-06 0)
(0.000199002827111 1.7858530801e-06 0)
(0.000196964092777 1.63784155669e-06 0)
(0.000195094274571 1.49992191815e-06 0)
(0.000193381733354 1.37152346034e-06 0)
(0.000191815388594 1.25223666989e-06 0)
(0.000190384523357 1.14184406923e-06 0)
(0.00018907855228 1.04036387956e-06 0)
(0.000187886739896 9.48111376915e-07 0)
(0.000186797853481 8.65784745245e-07 0)
(0.000185799731603 7.94585079273e-07 0)
(0.000184878748418 7.36384029283e-07 0)
(0.000184019158674 6.93957231494e-07 0)
(0.000183202330817 6.71304565561e-07 0)
(0.000182405943989 6.74068962397e-07 0)
(0.000181603411709 7.10004060392e-07 0)
(0.000180764290748 7.89177838641e-07 0)
(0.000179857677099 9.22547876093e-07 0)
(0.000178864316446 1.1129209221e-06 0)
(0.000177801464313 1.30482432339e-06 0)
(0.00122478104855 0.000267927944631 0)
(0.00124107527088 0.000383705678643 0)
(0.00119614939522 0.000347863037625 0)
(0.00111334333513 0.00028416741041 0)
(0.00102027890938 0.000225681660119 0)
(0.000930658518558 0.000178638019529 0)
(0.000849914042979 0.000142254941948 0)
(0.000779440981564 0.000114336175393 0)
(0.000718871975199 9.28035075987e-05 0)
(0.000667182508129 7.60191811468e-05 0)
(0.000623194969047 6.27683620844e-05 0)
(0.000585790023529 5.21677356343e-05 0)
(0.000553981608186 4.3576570299e-05 0)
(0.000526931558929 3.65272314016e-05 0)
(0.000503939752337 3.06748348053e-05 0)
(0.00048442612638 2.57618179487e-05 0)
(0.000467911662719 2.15932340041e-05 0)
(0.000454001098782 1.80195070972e-05 0)
(0.000442368200957 1.49243188397e-05 0)
(0.000432743611455 1.22160200064e-05 0)
(0.00042490497643 9.82147516251e-06 0)
(0.000418668985101 7.68159960587e-06 0)
(0.000413884965074 5.74808493208e-06 0)
(0.000410429726859 3.98096849589e-06 0)
(0.0004082034043 2.34680909915e-06 0)
(0.000407126086661 8.17303655893e-07 0)
(0.000407135079226 -6.31770767406e-07 0)
(0.000408182661094 -2.02136852506e-06 0)
(0.000410234234881 -3.36980026361e-06 0)
(0.000413266784382 -4.69321703451e-06 0)
(0.000417267568886 -6.0059755815e-06 0)
(0.000422232991563 -7.32090370983e-06 0)
(0.000428167586483 -8.6494784391e-06 0)
(0.000435083072547 -1.00019235137e-05 0)
(0.000442997423823 -1.13872279846e-05 0)
(0.000451933904972 -1.28130838571e-05 0)
(0.000461920018113 -1.42857376772e-05 0)
(0.000472986304045 -1.5809748908e-05 0)
(0.000485164936975 -1.73876469242e-05 0)
(0.000498488048756 -1.90194794194e-05 0)
(0.000512985717499 -2.07022483354e-05 0)
(0.000528683558198 -2.24292365719e-05 0)
(0.000545599862153 -2.41892404093e-05 0)
(0.000563742250502 -2.59657402565e-05 0)
(0.000583103838239 -2.77360660057e-05 0)
(0.000603658951864 -2.94706425726e-05 0)
(0.000625358507719 -3.11324327617e-05 0)
(0.000648125238669 -3.26767230694e-05 0)
(0.000671849048523 -3.40514142639e-05 0)
(0.000696382866529 -3.51979724131e-05 0)
(0.000721539451753 -3.60531581207e-05 0)
(0.000747089640226 -3.65515797891e-05 0)
(0.000772762518083 -3.66290192162e-05 0)
(0.000798247932442 -3.62263751118e-05 0)
(0.000823201621677 -3.52939858122e-05 0)
(0.000847253073926 -3.3796037398e-05 0)
(0.000870016022201 -3.17147218959e-05 0)
(0.000891101258714 -2.90537463492e-05 0)
(0.000910131183867 -2.58406901931e-05 0)
(0.000926755187849 -2.21276157065e-05 0)
(0.000940664633582 -1.79893821645e-05 0)
(0.000951605984282 -1.3519427414e-05 0)
(0.000959390654395 -8.82336479098e-06 0)
(0.000963900563418 -4.01139747504e-06 0)
(0.000965089086007 8.09052964661e-07 0)
(0.000962977892567 5.53921540321e-06 0)
(0.000957650779416 1.00925772005e-05 0)
(0.000949245795414 1.43963002549e-05 0)
(0.000937946807494 1.83909769661e-05 0)
(0.000923975309351 2.20293791759e-05 0)
(0.000907582904133 2.52748640994e-05 0)
(0.000889044554978 2.80999612059e-05 0)
(0.000868652449255 3.04854723587e-05 0)
(0.000846710186222 3.24202050006e-05 0)
(0.000823526981143 3.39012515797e-05 0)
(0.00079941167115 3.49345579526e-05 0)
(0.000774666481055 3.55354205627e-05 0)
(0.0007495807129 3.57285485276e-05 0)
(0.000724424701423 3.55474303059e-05 0)
(0.000699444473417 3.50329262405e-05 0)
(0.000674857534675 3.423120622e-05 0)
(0.000650850092122 3.31913016853e-05 0)
(0.000627575841172 3.19626033219e-05 0)
(0.000605156260309 3.059260808e-05 0)
(0.000583682200992 2.91251292078e-05 0)
(0.000563216465387 2.75990700011e-05 0)
(0.000543797031518 2.60477597199e-05 0)
(0.000525440603437 2.44987777254e-05 0)
(0.000508146215342 2.29741542526e-05 0)
(0.000491898684732 2.14908277125e-05 0)
(0.000476671776888 2.00612497955e-05 0)
(0.000462431002098 1.86940508994e-05 0)
(0.000449136014087 1.73947025971e-05 0)
(0.000436742612121 1.61661359074e-05 0)
(0.000425204371646 1.50092923163e-05 0)
(0.000414473941159 1.39235977326e-05 0)
(0.000404504048795 1.29073587706e-05 0)
(0.000395248262964 1.19580862038e-05 0)
(0.00038666154912 1.10727535664e-05 0)
(0.000378700660715 1.02479999521e-05 0)
(0.000371324397522 9.48028626588e-06 0)
(0.000364493759526 8.76601346746e-06 0)
(0.0003581720197 8.10161055559e-06 0)
(0.000352324734599 7.48359890598e-06 0)
(0.00034691970777 6.90863869549e-06 0)
(0.000341926917553 6.37356214996e-06 0)
(0.000337318417906 5.8753977123e-06 0)
(0.000333068218358 5.41138854631e-06 0)
(0.000329152146975 4.97900847057e-06 0)
(0.000325547698298 4.57597808099e-06 0)
(0.000322233866421 4.20028383081e-06 0)
(0.000319190961775 3.85020285685e-06 0)
(0.000316400408592 3.5243367047e-06 0)
(0.00031384451858 3.22165751625e-06 0)
(0.000311506234994 2.94157100187e-06 0)
(0.000309368840366 2.68400133357e-06 0)
(0.000307415621004 2.4495041496e-06 0)
(0.000305629483088 2.23941464786e-06 0)
(0.000303992520594 2.05603781466e-06 0)
(0.000302485548155 1.90288516816e-06 0)
(0.000301087639629 1.78495266921e-06 0)
(0.000299775769289 1.70900578645e-06 0)
(0.000298524762962 1.68375965609e-06 0)
(0.000297307976773 1.71963105474e-06 0)
(0.000296099495076 1.82715329304e-06 0)
(0.000294879238736 2.01144275908e-06 0)
(0.000293642112588 2.25451355204e-06 0)
(0.000292404876739 2.46332039284e-06 0)
(0.00122191993102 0.000221226971392 0)
(0.00125335039103 0.000382681988308 0)
(0.00125096060614 0.00039620241269 0)
(0.00121318520783 0.000356409516741 0)
(0.00115504926788 0.000304639941825 0)
(0.00108895870335 0.000255390715385 0)
(0.00102238923237 0.000212816214915 0)
(0.000959303481536 0.000177333737073 0)
(0.000901528273725 0.000148150182636 0)
(0.000849685015976 0.000124205253572 0)
(0.000803754424939 0.000104500442454 0)
(0.000763402618608 8.81924297379e-05 0)
(0.000728162903767 7.46000288621e-05 0)
(0.000697533546578 6.31832015297e-05 0)
(0.000671027810559 5.35164291982e-05 0)
(0.000648197445631 4.52642359123e-05 0)
(0.000628641766017 3.81609802435e-05 0)
(0.000612009173233 3.19949378527e-05 0)
(0.000597994943458 2.65960351915e-05 0)
(0.000586337370406 2.18264848368e-05 0)
(0.000576813379974 1.75736534273e-05 0)
(0.000569234188106 1.37446210751e-05 0)
(0.000563441272489 1.02620144426e-05 0)
(0.00055930276549 7.06079824503e-06 0)
(0.00055671028965 4.08579043434e-06 0)
(0.000555576213656 1.28972723316e-06 0)
(0.000555831286626 -1.36825002428e-06 0)
(0.000557422598782 -3.92377483592e-06 0)
(0.00056031181708 -6.40817891524e-06 0)
(0.000564473647282 -8.84921217357e-06 0)
(0.000569894471783 -1.12715845627e-05 0)
(0.00057657111367 -1.3697355183e-05 0)
(0.000584509679145 -1.61461836997e-05 0)
(0.00059372442962 -1.86354511714e-05 0)
(0.000604236632856 -2.11802507696e-05 0)
(0.00061607333958 -2.37932438529e-05 0)
(0.000629266028131 -2.64843726027e-05 0)
(0.000643849055437 -2.92604180423e-05 0)
(0.000659857848563 -3.21243914654e-05 0)
(0.000677326768217 -3.50747498901e-05 0)
(0.0006962865755 -3.81044325534e-05 0)
(0.000716761437687 -4.11997281166e-05 0)
(0.000738765420702 -4.43390020841e-05 0)
(0.000762298438188 -4.74913432513e-05 0)
(0.000787341663275 -5.06152265763e-05 0)
(0.000813852462576 -5.36573370206e-05 0)
(0.000841758984533 -5.65517491991e-05 0)
(0.000870954625535 -5.9219702464e-05 0)
(0.000901292701809 -6.15702357609e-05 0)
(0.000932581761466 -6.35019345683e-05 0)
(0.000964582060599 -6.49059781877e-05 0)
(0.000997003776536 -6.56705548347e-05 0)
(0.00102950751757 -6.56865479198e-05 0)
(0.00106170759923 -6.48542230776e-05 0)
(0.00109317839748 -6.3090503777e-05 0)
(0.00112346388257 -6.03363353155e-05 0)
(0.00115209020904 -5.65635798955e-05 0)
(0.0011785809933 -5.17807956898e-05 0)
(0.00120247462455 -4.60370920304e-05 0)
(0.00122334259414 -3.94230932467e-05 0)
(0.0012408074233 -3.20680990477e-05 0)
(0.00125455845452 -2.41330281019e-05 0)
(0.00126436376542 -1.5799698855e-05 0)
(0.0012700769271 -7.25810735653e-06 0)
(0.00127163821545 1.30595840417e-06 0)
(0.00126907089527 9.72080982361e-06 0)
(0.00126247393952 1.78350183383e-05 0)
(0.00125201276323 2.55199678386e-05 0)
(0.00123790930694 3.26696856808e-05 0)
(0.0012204323761 3.91990175375e-05 0)
(0.0011998887076 4.50412061942e-05 0)
(0.00117661486031 5.01457138267e-05 0)
(0.0011509697518 5.44768267231e-05 0)
(0.00112332751356 5.80132421167e-05 0)
(0.00109407031971 6.0748503939e-05 0)
(0.0010635809521 6.26918767309e-05 0)
(0.00103223506732 6.38690755299e-05 0)
(0.00100039337545 6.43222597827e-05 0)
(0.000968394153182 6.41088678829e-05 0)
(0.000936546626579 6.32991683747e-05 0)
(0.000905125734828 6.19727304273e-05 0)
(0.000874368639634 6.02142621519e-05 0)
(0.000844473126299 5.81093651355e-05 0)
(0.000815597816666 5.57407054954e-05 0)
(0.000787863933912 5.31849527563e-05 0)
(0.000761358251557 5.05106526654e-05 0)
(0.000736136825653 4.77770334949e-05 0)
(0.000712229134082 4.50336276215e-05 0)
(0.000689642308205 4.2320528583e-05 0)
(0.000668365218642 3.96690889129e-05 0)
(0.000648372253265 3.71028811715e-05 0)
(0.000629626692196 3.4638777681e-05 0)
(0.000612083637547 3.2288042747e-05 0)
(0.000595692494289 3.00573663495e-05 0)
(0.000580399024546 2.7949797789e-05 0)
(0.000566147013114 2.59655595552e-05 0)
(0.000552879589688 2.41027372587e-05 0)
(0.000540540255505 2.23578509685e-05 0)
(0.000529073660681 2.07263191099e-05 0)
(0.000518426174903 1.92028284122e-05 0)
(0.000508546289487 1.778162428e-05 0)
(0.000499384883621 1.64567351668e-05 0)
(0.000490895382571 1.52221435754e-05 0)
(0.000483033830819 1.40719146281e-05 0)
(0.000475758898784 1.30002918688e-05 0)
(0.000469031837908 1.20017683705e-05 0)
(0.000462816395549 1.10711402144e-05 0)
(0.000457078698193 1.02035482397e-05 0)
(0.000451787108989 9.39451339538e-06 0)
(0.000446912063418 8.63997033963e-06 0)
(0.000442425885057 7.93630380882e-06 0)
(0.000438302581759 7.28039203595e-06 0)
(0.000434517621284 6.66966174563e-06 0)
(0.000431047684478 6.10215933181e-06 0)
(0.000427870393669 5.57664320376e-06 0)
(0.000424964014518 5.09270221355e-06 0)
(0.000422307131568 4.65090464424e-06 0)
(0.000419878302441 4.25298008281e-06 0)
(0.000417655704768 3.90203131934e-06 0)
(0.000415616806536 3.60276105146e-06 0)
(0.000413738119373 3.36167120542e-06 0)
(0.000411995142267 3.18713353454e-06 0)
(0.000410362679062 3.08910052676e-06 0)
(0.000408815820503 3.07793444041e-06 0)
(0.000407331991366 3.16116079026e-06 0)
(0.000405894335775 3.33534772091e-06 0)
(0.000404495236378 3.56683489683e-06 0)
(0.000403131862 3.75160997904e-06 0)
(0.00121691781546 0.000182389231276 0)
(0.00124901708943 0.000357990013209 0)
(0.00126549980628 0.000406801479921 0)
(0.00125555707673 0.000393528600214 0)
(0.0012249687414 0.000356245155738 0)
(0.00118204845489 0.000312796374428 0)
(0.00113334881103 0.000270679692663 0)
(0.00108324717521 0.000232657668012 0)
(0.00103443259495 0.000199416061913 0)
(0.000988437196456 0.000170778052724 0)
(0.000946044693937 0.000146250759014 0)
(0.000907572925251 0.000125265710231 0)
(0.000873060326185 0.000107279084096 0)
(0.000842385730634 9.18081205394e-05 0)
(0.000815343813091 7.84391848309e-05 0)
(0.000791691695471 6.68239833734e-05 0)
(0.000771177087946 5.66715398121e-05 0)
(0.000753554742141 4.77393359838e-05 0)
(0.000738595589298 3.98250378731e-05 0)
(0.000726091359016 3.27593026304e-05 0)
(0.00071585645338 2.63997476483e-05 0)
(0.000707728195844 2.06259908634e-05 0)
(0.000701566155374 1.53356138623e-05 0)
(0.000697250979556 1.04408931464e-05 0)
(0.000694683000762 5.86615992884e-06 0)
(0.000693780771715 1.5456706932e-06 0)
(0.000694479618414 -2.57810716785e-06 0)
(0.000696730251831 -6.5558592562e-06 0)
(0.000700497457049 -1.04325159888e-05 0)
(0.000705758860859 -1.42481090349e-05 0)
(0.000712503759959 -1.80384130699e-05 0)
(0.000720731985484 -2.1835397538e-05 0)
(0.000730452773661 -2.56674998908e-05 0)
(0.00074168360584 -2.95597236479e-05 0)
(0.000754448975253 -3.35335576714e-05 0)
(0.000768779032014 -3.76067073815e-05 0)
(0.000784708052007 -4.17926241866e-05 0)
(0.000802272669709 -4.60998169808e-05 0)
(0.000821509810121 -5.05309297614e-05 0)
(0.00084245425171 -5.50815738829e-05 0)
(0.000865135752028 -5.97389136672e-05 0)
(0.000889575672359 -6.44800225654e-05 0)
(0.000915783049928 -6.92700558758e-05 0)
(0.000943750089204 -7.40603275857e-05 0)
(0.000973447081341 -7.87864337009e-05 0)
(0.0010048168167 -8.33666309227e-05 0)
(0.00103776863253 -8.77007509656e-05 0)
(0.00107217233651 -9.16699946668e-05 0)
(0.00110785236287 -9.51379860731e-05 0)
(0.0011445826384 -9.79534502518e-05 0)
(0.00118208274101 -9.9954786323e-05 0)
(0.00122001599453 -0.000100976630126 0)
(0.00125799013086 -0.000100858256872 0)
(0.00129556104781 -9.94534138528e-05 0)
(0.00133224000323 -9.66409637632e-05 0)
(0.00136750434959 -9.23356019257e-05 0)
(0.00140081166821 -8.64978539326e-05 0)
(0.00143161692207 -7.91424583732e-05 0)
(0.00145939196371 -7.03440066197e-05 0)
(0.0014836463384 -6.02384359225e-05 0)
(0.0015039478108 -4.90189822206e-05 0)
(0.00151994058251 -3.69258859179e-05 0)
(0.00153135906709 -2.42305903824e-05 0)
(0.00153803560961 -1.12168911669e-05 0)
(0.00153990165585 1.83741838525e-06 0)
(0.00153698318449 1.46751340517e-05 0)
(0.00152939213806 2.70686715402e-05 0)
(0.00151731577958 3.88238085899e-05 0)
(0.00150100550809 4.97795176882e-05 0)
(0.0014807661001 5.98054574173e-05 0)
(0.00145694583758 6.87986209947e-05 0)
(0.00142992757566 7.66803252507e-05 0)
(0.00140012050736 8.33943052131e-05 0)
(0.0013679522233 8.89061978608e-05 0)
(0.00133386065381 9.32042249524e-05 0)
(0.001298285611 9.63004834241e-05 0)
(0.00126165989164 9.82319961871e-05 0)
(0.00122440019891 9.90606545852e-05 0)
(0.0011868984023 9.88714317556e-05 0)
(0.00114951379016 9.77686928361e-05 0)
(0.00111256693301 9.58709147496e-05 0)
(0.0010763355869 9.33044894397e-05 0)
(0.00104105279491 9.01974237077e-05 0)
(0.00100690707371 8.6673668065e-05 0)
(0.000974044364902 8.28485811197e-05 0)
(0.000942571316294 7.88257628215e-05 0)
(0.000912559431417 7.46952488492e-05 0)
(0.000884049664741 7.05328913222e-05 0)
(0.000857057115853 6.64006654017e-05 0)
(0.000831575564703 6.23476223846e-05 0)
(0.000807581674964 5.84112351353e-05 0)
(0.000785038764668 5.4618929129e-05 0)
(0.000763900099344 5.09896461316e-05 0)
(0.000744111703149 4.7535337279e-05 0)
(0.000725614710331 4.42623235874e-05 0)
(0.00070834729539 4.11724930304e-05 0)
(0.000692246228455 3.82643253229e-05 0)
(0.000677248104961 3.55337496903e-05 0)
(0.000663290297626 3.29748493493e-05 0)
(0.000650311675409 3.05804305163e-05 0)
(0.000638253129616 2.83424752161e-05 0)
(0.000627057942332 2.62524967035e-05 0)
(0.000616672027272 2.4301815028e-05 0)
(0.000607044068382 2.24817683632e-05 0)
(0.000598125577069 2.07838738437e-05 0)
(0.000589870884984 1.91999497039e-05 0)
(0.00058223708583 1.77222089136e-05 0)
(0.000575183936589 1.63433330219e-05 0)
(0.000568673725998 1.50565338548e-05 0)
(0.000562671115856 1.38556097898e-05 0)
(0.000557142958924 1.27350027801e-05 0)
(0.000552058095678 1.16898618394e-05 0)
(0.000547387131107 1.07161184729e-05 0)
(0.000543102192181 9.81057921582e-06 0)
(0.000539176666706 8.97103999719e-06 0)
(0.000535584925389 8.19642590053e-06 0)
(0.000532302031494 7.48695752164e-06 0)
(0.000529303447275 6.84434004892e-06 0)
(0.000526564754491 6.27196115135e-06 0)
(0.000524061419193 5.77506399146e-06 0)
(0.000521768650446 5.36082338476e-06 0)
(0.000519661429774 5.03817839471e-06 0)
(0.000517714820596 4.81712748445e-06 0)
(0.000515904687952 4.70689845297e-06 0)
(0.000514208897812 4.71181627539e-06 0)
(0.000512608666855 4.82257940652e-06 0)
(0.000511088192007 4.99917824487e-06 0)
(0.000509627193999 5.14363971426e-06 0)
(0.00121282781333 0.00015264360897 0)
(0.00124164377822 0.000326820415537 0)
(0.00126560781683 0.000397524346185 0)
(0.00127179307533 0.000406563227769 0)
(0.00126046082593 0.000385131134923 0)
(0.00123625339806 0.000351038131444 0)
(0.00120400800489 0.000313382994516 0)
(0.00116755731093 0.000276506717852 0)
(0.00112963658024 0.00024230234503 0)
(0.00109208614428 0.000211437626072 0)
(0.00105608509993 0.000183984754481 0)
(0.0010223465839 0.000159742021254 0)
(0.000991265040616 0.000138396936927 0)
(0.000963022351867 0.000119607573133 0)
(0.000937662460758 0.000103041561521 0)
(0.000915143007926 8.83931971531e-05 0)
(0.000895370610347 7.53893504098e-05 0)
(0.000878224672874 6.37898270532e-05 0)
(0.000863573241349 5.3385148524e-05 0)
(0.000851283375311 4.39933044574e-05 0)
(0.000841227772777 3.54562687873e-05 0)
(0.00083328884984 2.7636663458e-05 0)
(0.000827361105449 2.04147376782e-05 0)
(0.000823352341742 1.36857185254e-05 0)
(0.000821184129365 7.35753334318e-06 0)
(0.000820791781391 1.34887972391e-06 0)
(0.000822124011643 -4.41239005304e-06 0)
(0.000825142389178 -9.99058665725e-06 0)
(0.000829820666098 -1.5443272558e-05 0)
(0.000836144022372 -2.08221168985e-05 0)
(0.00084410824102 -2.6173529781e-05 0)
(0.000853718816525 -3.15390910631e-05 0)
(0.000864989986031 -3.69557754547e-05 0)
(0.000877943661621 -4.24559691966e-05 0)
(0.00089260823249 -4.80672673336e-05 0)
(0.000909017197224 -5.3812035276e-05 0)
(0.000927207578516 -5.97067142176e-05 0)
(0.000947218065435 -6.57608481334e-05 0)
(0.00096908682215 -7.19758114671e-05 0)
(0.000992848897608 -7.83432232742e-05 0)
(0.0010185331691 -8.48430475359e-05 0)
(0.00104615875595 -9.14414037456e-05 0)
(0.00107573084998 -9.80881495635e-05 0)
(0.00110723593058 -0.000104714351419 0)
(0.00114063636809 -0.000111229830585 0)
(0.00117586447486 -0.000117521059724 0)
(0.00121281614196 -0.000123449780354 0)
(0.00125134430531 -0.000128852798937 0)
(0.00129125261217 -0.000133543471971 0)
(0.00133228979888 -0.000137315373963 0)
(0.00137414541824 -0.000139948522464 0)
(0.00141644763608 -0.000141218294105 0)
(0.00145876381262 -0.000140906826188 0)
(0.00150060446923 -0.000138816331328 0)
(0.00154143102221 -0.000134783462273 0)
(0.00158066739279 -0.000128693724272 0)
(0.0016177153452 -0.000120494905215 0)
(0.00165197318663 -0.000110208406274 0)
(0.00168285721179 -9.79370335745e-05 0)
(0.0017098248488 -8.38673358622e-05 0)
(0.00173239780468 -6.82644357583e-05 0)
(0.00175018281836 -5.14581556703e-05 0)
(0.00176288735818 -3.38212978581e-05 0)
(0.00177032817699 -1.57435143757e-05 0)
(0.00177243208737 2.39409824676e-06 0)
(0.00176923007196 2.02389368863e-05 0)
(0.00176084702448 3.74789420349e-05 0)
(0.00174748952687 5.38473585758e-05 0)
(0.00172943341628 6.91223011902e-05 0)
(0.00170701212799 8.31233110153e-05 0)
(0.00168060621631 9.57068744519e-05 0)
(0.00165063401956 0.000106762458091 0)
(0.00161754311515 0.000116210070199 0)
(0.00158180204205 0.000123999715282 0)
(0.00154389176942 0.000130112477538 0)
(0.00150429655076 0.000134562425077 0)
(0.00146349410104 0.00013739816314 0)
(0.00142194540767 0.000138702821486 0)
(0.00138008481822 0.000138591607975 0)
(0.00133831121666 0.000137206697327 0)
(0.00129698104583 0.000134709915491 0)
(0.00125640368625 0.000131274181815 0)
(0.00121683935797 0.000127074848882 0)
(0.00117849938219 0.00012228194639 0)
(0.00114154840222 0.00011705400652 0)
(0.00110610804462 0.000111533766042 0)
(0.00107226149042 0.000105845713495 0)
(0.00104005848706 0.00010009523072 0)
(0.0010095204287 9.43689713107e-05 0)
(0.000980645236945 8.87361003463e-05 0)
(0.000953411868692 8.32500579549e-05 0)
(0.000927784354518 7.79505743872e-05 0)
(0.00090371532845 7.28657357994e-05 0)
(0.000881149049791 6.80139651466e-05 0)