/*--------------------------------*- C++ -*----------------------------------*\
  =========                 |
  \\      /  F ield         | OpenFOAM: The Open Source CFD Toolbox
   \\    /   O peration     | Website:  https://openfoam.org
    \\  /    A nd           | Version:  7
     \\/     M anipulation  |
\*---------------------------------------------------------------------------*/
FoamFile
{
    version     2.0;
    format      ascii;
    class       volScalarField;
    location    "1560";
    object      Ci;
}
// * * * * * * * * * * * * * * * * * * * * * * * * * * * * * * * * * * * * * //

dimensions      [0 -3 0 0 1 0 0];

internalField   nonuniform List<scalar> 
8192
(
10.0000000133
9.99999995438
9.99999988613
9.99999982145
9.99999976404
9.9999997057
9.99999964081
9.99999956646
9.99999948337
9.99999939024
9.99999928832
9.99999917578
9.99999905413
9.9999989213
9.99999877952
9.99999862686
9.99999846648
9.99999829675
9.99999812188
9.9999979405
9.99999775771
9.9999975723
9.99999739027
9.99999721046
9.99999703937
9.99999687546
9.99999672542
9.99999658698
9.99999646661
9.99999636102
9.99999627614
9.99999620744
9.99999616016
9.9999961283
9.99999611607
9.99999611592
9.99999613105
9.99999615248
9.99999618261
9.99999621136
9.99999624073
9.99999626006
9.99999627149
9.9999962644
9.99999624173
9.99999619356
9.99999612433
9.99999602556
9.99999590398
9.99999575336
9.99999558354
9.99999539123
9.99999518991
9.99999497931
9.99999477626
9.99999458277
9.99999441797
9.99999428505
9.99999420449
9.99999417992
9.99999423222
9.99999436379
9.99999459281
9.99999491611
9.99999534378
9.99999586257
9.99999647192
9.99999714955
9.99999788839
9.99999866347
9.99999946749
10.0000002778
10.0000010899
10.0000018848
10.000002661
10.0000034032
10.0000041128
10.0000047787
10.0000054061
10.0000059885
10.0000065353
10.0000070447
10.0000075291
10.00000799
10.0000084413
10.0000088856
10.0000093362
10.0000097951
10.0000102735
10.0000107714
10.0000112972
10.0000118482
10.0000124299
10.0000130372
10.0000136726
10.0000143292
10.0000150079
10.0000157011
10.0000164082
10.000017121
10.000017838
10.0000185512
10.0000192585
10.0000199523
10.0000206309
10.0000212872
10.0000219198
10.0000225227
10.0000230947
10.000023631
10.0000241306
10.0000245898
10.000025008
10.0000253822
10.0000257124
10.0000259963
10.000026234
10.0000264238
10.0000265657
10.0000266582
10.0000267012
10.0000266938
10.000026637
10.0000265335
10.0000263896
10.0000262158
10.0000260306
10.0000258811
9.99999998554
9.99999992998
9.99999987728
9.99999983233
9.99999978998
9.99999974368
9.9999996904
9.99999962807
9.99999955712
9.99999947647
9.99999938702
9.99999928737
9.99999917865
9.99999905926
9.99999893086
9.99999879201
9.99999864517
9.99999848926
9.99999832763
9.99999815957
9.99999798914
9.99999781587
9.99999764487
9.99999747584
9.99999731427
9.99999715959
9.9999970174
9.99999688657
9.99999677249
9.99999667314
9.99999659334
9.99999653016
9.99999648785
9.99999646205
9.99999645598
9.99999646389
9.99999648801
9.99999652128
9.9999965651
9.99999661137
9.99999666099
9.99999670525
9.999996745
9.99999677141
9.99999678586
9.99999677994
9.99999675611
9.99999670702
9.99999663689
9.99999654005
9.99999642318
9.99999628293
9.99999612886
9.99999596015
9.99999578915
9.99999561717
9.99999545874
9.99999531678
9.99999520752
9.99999513517
9.99999511692
9.99999515693
9.99999527083
9.99999545917
9.99999573173
9.99999608179
9.99999651112
9.99999700603
9.99999756279
9.9999981648
9.999998807
9.99999947319
10.000000159
10.0000008498
10.0000015422
10.0000022234
10.0000028917
10.0000035366
10.0000041593
10.0000047528
10.0000053215
10.0000058628
10.0000063841
10.000006886
10.0000073784
10.0000078633
10.0000083511
10.000008844
10.0000093514
10.0000098742
10.0000104196
10.0000109866
10.0000115796
10.0000121956
10.0000128363
10.0000134967
10.0000141774
10.0000148727
10.0000155816
10.0000162973
10.0000170177
10.0000177359
10.0000184494
10.0000191515
10.0000198397
10.000020508
10.000021154
10.0000217726
10.0000223619
10.0000229175
10.000023438
10.0000239199
10.0000243622
10.0000247621
10.0000251191
10.0000254311
10.0000256978
10.0000259178
10.0000260906
10.000026215
10.0000262904
10.0000263162
10.000026293
10.0000262227
10.0000261094
10.0000259598
10.0000257844
10.0000256131
9.99999998576
9.99999995454
9.9999999268
9.99999989779
9.99999986971
9.99999983877
9.9999998039
9.99999976259
9.99999971552
9.9999996604
9.99999959849
9.99999952733
9.9999994487
9.99999936
9.99999926371
9.99999915726
9.99999904398
9.99999892148
9.99999879403
9.99999865948
9.999998523
9.99999838257
9.99999824423
9.99999810605
9.99999797469
9.99999784804
9.99999773312
9.99999762734
9.99999753775
9.99999746102
9.9999974039
9.9999973621
9.9999973419
9.99999733786
9.9999973555
9.9999973881
9.99999744036
9.99999750429
9.99999758381
9.99999766978
9.99999776557
9.99999786111
9.99999795951
9.99999805008
9.99999813599
9.9999982063
9.99999826464
9.99999830021
9.99999831763
9.99999830679
9.99999827394
9.99999821034
9.99999812453
9.99999800963
9.99999787683
9.99999772133
9.99999755695
9.99999738099
9.99999720982
9.99999704285
9.9999968986
9.99999677782
9.99999669928
9.99999666255
9.99999668326
9.99999675676
9.99999689325
9.99999708336
9.99999733296
9.99999763028
9.99999797918
9.99999836734
9.99999879759
9.9999992574
9.99999974858
10.0000002584
10.0000007881
10.0000013252
10.0000018713
10.0000024157
10.0000029612
10.0000034999
10.0000040366
10.0000045663
10.000005096
10.0000056228
10.0000061549
10.0000066908
10.0000072389
10.0000077976
10.0000083746
10.0000089674
10.0000095819
10.0000102144
10.0000108686
10.0000115396
10.0000122293
10.0000129319
10.0000136479
10.0000143709
10.0000151001
10.0000158287
10.0000165555
10.0000172738
10.0000179819
10.0000186736
10.0000193473
10.0000199974
10.0000206225
10.0000212177
10.0000217818
10.0000223109
10.000022804
10.000023258
10.000023672
10.0000240439
10.0000243731
10.0000246579
10.0000248978
10.0000250912
10.0000252376
10.0000253361
10.0000253867
10.0000253913
10.0000253506
10.0000252659
10.0000251484
10.000024977
9.99999998738
9.999999982
9.99999996784
9.9999999564
9.99999994705
9.999999936
9.99999992218
9.99999990395
9.99999988143
9.99999985334
9.99999981991
9.99999977976
9.99999973332
9.99999967928
9.99999961852
9.99999954997
9.99999947508
9.99999939314
9.99999930626
9.99999921414
9.99999911955
9.99999902255
9.99999892649
9.99999883169
9.99999874193
9.99999865765
9.99999858283
9.99999851779
9.99999846644
9.99999842874
9.99999840824
9.9999984043
9.99999841981
9.99999845342
9.9999985071
9.9999985786
9.99999866885
9.99999877456
9.99999889568
9.99999902777
9.99999916994
9.99999931663
9.99999946637
9.9999996126
9.99999975351
9.99999988189
9.99999999589
10.0000000882
10.0000001573
10.0000001965
10.0000002057
10.0000001794
10.0000001197
10.0000000233
9.999999895
9.9999997342
9.99999954819
9.99999933914
9.99999911677
9.99999888561
9.99999865744
9.99999843829
9.99999824036
9.99999806882
9.99999793338
9.99999783554
9.99999778069
9.99999776642
9.99999779525
9.99999786336
9.99999797289
9.99999812016
9.99999830735
9.99999853065
9.99999879167
9.99999908592
9.99999941402
9.99999977071
10.0000001559
10.000000564
10.0000009948
10.0000014435
10.0000019101
10.0000023909
10.0000028869
10.0000033956
10.0000039191
10.0000044558
10.0000050084
10.0000055761
10.0000061615
10.0000067636
10.0000073847
10.0000080231
10.00000868
10.0000093528
10.0000100418
10.0000107436
10.0000114573
10.000012179
10.0000129069
10.0000136367
10.000014366
10.0000150902
10.0000158069
10.0000165116
10.0000172015
10.0000178726
10.0000185223
10.0000191469
10.0000197442
10.000020311
10.0000208453
10.0000213444
10.0000218069
10.0000222307
10.0000226145
10.0000229569
10.0000232568
10.000023513
10.0000237245
10.0000238904
10.0000240101
10.0000240852
10.0000241144
10.000024097
10.0000240478
10.0000238948
9.99999999683
10.0000000141
10.0000000259
10.0000000302
10.0000000332
10.000000034
10.0000000329
10.0000000293
10.0000000232
10.0000000137
10.000000001
9.99999998373
9.99999996234
9.99999993561
9.99999990418
9.99999986713
9.99999982559
9.99999977901
9.9999997291
9.9999996757
9.99999962108
9.99999956544
9.99999951152
9.99999945981
9.9999994134
9.99999937292
9.99999934157
9.99999932004
9.99999931132
9.999999316
9.99999933649
9.99999937325
9.99999942763
9.99999949993
9.99999959003
9.99999969799
9.99999982204
9.9999999617
10.0000001138
10.0000002767
10.0000004466
10.00000062
10.0000007931
10.0000009608
10.0000011193
10.0000012623
10.0000013865
10.0000014854
10.0000015564
10.0000015937
10.0000015963
10.0000015601
10.0000014865
10.0000013738
10.0000012265
10.0000010454
10.0000008374
10.000000606
10.0000003601
10.0000001048
9.99999985079
9.99999960406
9.99999937504
9.99999916852
9.99999899192
9.99999884595
9.99999873347
9.99999865131
9.99999859986
9.99999857527
9.99999857848
9.99999860691
9.99999866261
9.99999874403
9.99999885375
9.9999989906
9.99999915703
9.99999935172
9.99999957672
9.99999983045
10.0000001145
10.000000427
10.000000769
10.0000011385
10.0000015363
10.0000019603
10.0000024111
10.0000028866
10.0000033876
10.0000039122
10.0000044608
10.0000050315
10.0000056245
10.0000062378
10.000006871
10.0000075215
10.0000081885
10.000008869
10.0000095614
10.0000102625
10.0000109701
10.0000116807
10.0000123918
10.0000130996
10.0000138015
10.0000144938
10.0000151737
10.0000158376
10.0000164829
10.0000171064
10.0000177055
10.0000182774
10.0000188198
10.0000193304
10.0000198071
10.0000202482
10.000020652
10.0000210173
10.0000213427
10.0000216274
10.00002187
10.0000220702
10.0000222259
10.0000223399
10.000022408
10.000022435
10.0000224242
10.0000223306
9.9999999964
10.0000000264
10.0000000455
10.0000000656
10.0000000853
10.0000001019
10.0000001153
10.0000001253
10.000000133
10.0000001376
10.0000001396
10.0000001383
10.000000134
10.0000001261
10.000000115
10.0000001003
10.0000000827
10.0000000623
10.0000000401
10.0000000166
9.99999999324
9.9999999707
9.99999995096
9.99999993486
9.99999992455
9.99999992111
9.99999992656
9.99999994229
9.9999999696
10.0000000105
10.0000000647
10.0000001353
10.0000002195
10.0000003221
10.0000004365
10.0000005701
10.0000007116
10.0000008707
10.0000010325
10.0000012069
10.0000013781
10.0000015535
10.0000017194
10.0000018786
10.0000020216
10.0000021465
10.0000022477
10.0000023211
10.0000023637
10.0000023716
10.0000023437
10.000002278
10.0000021759
10.0000020376
10.0000018672
10.0000016675
10.0000014446
10.0000012035
10.0000009519
10.0000006964
10.0000004459
10.0000002077
9.99999999034
9.99999979962
9.99999964042
9.99999951346
9.9999994182
9.99999935058
9.99999930739
9.99999928406
9.99999927876
9.99999928866
9.99999931387
9.99999935311
9.99999940789
9.999999478
9.9999995658
9.99999967172
9.99999979866
9.99999994749
10.0000001213
10.0000003209
10.0000005491
10.0000008064
10.0000010948
10.0000014142
10.0000017657
10.0000021486
10.0000025633
10.0000030084
10.0000034837
10.0000039873
10.0000045183
10.0000050743
10.0000056539
10.0000062543
10.0000068737
10.0000075087
10.0000081573
10.000008816
10.0000094822
10.0000101524
10.0000108239
10.0000114931
10.0000121571
10.0000128127
10.0000134568
10.0000140864
10.0000146986
10.0000152905
10.0000158597
10.0000164034
10.0000169194
10.0000174056
10.00001786
10.0000182808
10.0000186666
10.0000190162
10.0000193283
10.0000196026
10.0000198371
10.0000200335
10.0000201865
10.0000203045
10.0000203708
10.0000204152
10.0000203904
10.000020374
10.0000000029
10.0000000428
10.0000000791
10.0000001082
10.0000001351
10.0000001589
10.0000001796
10.0000001973
10.0000002126
10.0000002257
10.0000002365
10.0000002449
10.000000251
10.0000002546
10.0000002561
10.0000002556
10.0000002535
10.0000002502
10.0000002465
10.0000002433
10.0000002415
10.000000242
10.0000002463
10.0000002555
10.0000002708
10.0000002938
10.0000003251
10.0000003673
10.0000004189
10.0000004851
10.0000005598
10.0000006538
10.0000007523
10.0000008755
10.0000009956
10.0000011462
10.0000012831
10.0000014543
10.0000016009
10.0000017804
10.0000019277
10.0000020986
10.0000022353
10.0000023793
10.000002491
10.0000025922
10.0000026625
10.0000027087
10.0000027229
10.0000027053
10.0000026541
10.0000025688
10.0000024502
10.0000022999
10.0000021207
10.0000019164
10.0000016919
10.0000014529
10.000001206
10.0000009585
10.0000007185
10.0000004944
10.0000002942
10.0000001244
9.99999998924
9.99999988948
9.99999982293
9.99999978489
9.99999977018
9.99999977373
9.99999979198
9.9999998219
9.99999986188
9.99999991051
9.99999996761
10.000000033
10.0000001075
10.0000001919
10.0000002881
10.0000003977
10.0000005232
10.0000006671
10.0000008321
10.0000010204
10.0000012346
10.0000014764
10.0000017477
10.0000020495
10.0000023826
10.0000027472
10.0000031432
10.0000035698
10.0000040257
10.0000045095
10.000005019
10.000005552
10.0000061059
10.0000066777
10.0000072645
10.0000078631
10.0000084702
10.0000090824
10.0000096965
10.0000103091
10.0000109168
10.0000115166
10.0000121052
10.0000126797
10.0000132372
10.000013775
10.0000142906
10.0000147814
10.0000152454
10.0000156807
10.0000160852
10.0000164578
10.0000167968
10.0000171016
10.0000173707
10.000017605
10.000017801
10.0000179644
10.0000180834
10.0000181789
10.000018211
10.0000182541
10.000018175
10.000018225
9.99999999833
10.0000000415
10.0000000765
10.0000001145
10.0000001528
10.0000001877
10.0000002185
10.0000002453
10.0000002688
10.0000002895
10.0000003079
10.0000003237
10.0000003374
10.000000349
10.0000003591
10.0000003678
10.0000003759
10.0000003837
10.0000003924
10.0000004023
10.0000004148
10.0000004305
10.0000004507
10.0000004763
10.0000005081
10.0000005483
10.0000005952
10.0000006545
10.0000007189
10.0000008019
10.0000008835
10.0000009948
10.0000010903
10.0000012333
10.000001336
10.0000015114
10.0000016126
10.000001815
10.0000019078
10.0000021223
10.0000022045
10.0000024065
10.0000024789
10.0000026414
10.0000027018
10.0000028056
10.0000028427
10.0000028811
10.0000028772
10.000002851
10.0000027915
10.0000027017
10.0000025807
10.0000024298
10.0000022512
10.0000020484
10.0000018258
10.0000015889
10.0000013443
10.0000010998
10.000000864
10.0000006465
10.0000004561
10.0000003008
10.0000001849
10.0000001092
10.0000000698
10.0000000607
10.0000000749
10.0000001061
10.0000001503
10.000000204
10.0000002657
10.0000003332
10.0000004068
10.0000004849
10.0000005687
10.0000006585
10.0000007561
10.0000008623
10.0000009795
10.0000011089
10.0000012532
10.0000014143
10.000001595
10.0000017973
10.0000020235
10.000002275
10.0000025535
10.0000028597
10.0000031942
10.000003557
10.0000039475
10.0000043645
10.0000048067
10.0000052719
10.0000057579
10.0000062619
10.0000067811
10.0000073123
10.0000078522
10.0000083974
10.0000089446
10.0000094903
10.0000100314
10.0000105644
10.0000110863
10.000011594
10.0000120848
10.000012556
10.0000130051
10.0000134299
10.0000138284
10.0000141988
10.0000145394
10.0000148493
10.0000151268
10.0000153722
10.0000155833
10.000015763
10.0000159051
10.0000160211
10.0000160898
10.00001615
10.0000161305
10.0000161609
10.0000160132
10.0000161046
10.0000000042
10.0000000547
10.0000001032
10.0000001448
10.0000001848
10.000000222
10.0000002559
10.0000002864
10.0000003141
10.0000003391
10.0000003618
10.0000003825
10.0000004011
10.0000004182
10.0000004339
10.0000004489
10.0000004638
10.0000004793
10.0000004961
10.000000515
10.0000005368
10.0000005627
10.000000593
10.0000006296
10.0000006714
10.000000723
10.0000007782
10.0000008496
10.0000009174
10.0000010153
10.0000010907
10.0000012239
10.0000012955
10.0000014763
10.0000015255
10.0000017671
10.0000017723
10.0000020809
10.0000020284
10.0000023906
10.0000022878
10.0000026612
10.0000025412
10.0000028628
10.0000027668
10.000002983
10.0000029278
10.000003024
10.0000029865
10.000002983
10.0000029216
10.0000028422
10.0000027282
10.0000025853
10.0000024132
10.000002216
10.0000019963
10.0000017607
10.0000015151
10.0000012683
10.0000010295
10.0000008098
10.0000006193
10.0000004676
10.0000003592
10.0000002948
10.0000002695
10.0000002758
10.0000003051
10.0000003509
10.0000004081
10.0000004745
10.0000005467
10.0000006234
10.0000007047
10.0000007914
10.0000008842
10.000000984
10.0000010917
10.0000012085
10.0000013353
10.0000014733
10.0000016234
10.0000017869
10.0000019647
10.0000021585
10.0000023692
10.0000025999
10.000002852
10.0000031268
10.0000034248
10.0000037467
10.0000040919
10.0000044602
10.0000048502
10.0000052606
10.000005689
10.0000061335
10.0000065912
10.0000070594
10.0000075348
10.0000080145
10.0000084951
10.0000089734
10.0000094462
10.0000099104
10.0000103628
10.0000108008
10.0000112216
10.0000116227
10.0000120017
10.0000123568
10.0000126859
10.0000129877
10.0000132607
10.0000135042
10.0000137166
10.0000138993
10.0000140487
10.0000141708
10.0000142554
10.0000143214
10.000014336
10.0000143581
10.0000142847
10.0000142966
10.0000140864
10.0000141924
9.99999999853
10.0000000517
10.0000000976
10.0000001464
10.0000001954
10.0000002409
10.000000282
10.0000003189
10.0000003521
10.0000003822
10.0000004097
10.000000435
10.0000004582
10.0000004798
10.0000005004
10.0000005204
10.0000005408
10.0000005619
10.0000005851
10.0000006105
10.0000006395
10.0000006725
10.0000007103
10.0000007546
10.0000008032
10.0000008632
10.0000009223
10.0000010045
10.0000010691
10.000001185
10.0000012414
10.0000014112
10.0000014311
10.0000016891
10.0000016253
10.0000020199
10.0000018107
10.0000023918
10.0000019833
10.0000027698
10.0000021587
10.000003093
10.0000023668
10.0000032969
10.0000026218
10.0000033574
10.0000028839
10.0000033084
10.0000030621
10.000003202
10.0000030812
10.0000030438
10.0000029277
10.0000027942
10.0000026252
10.0000024275
10.0000022037
10.0000019613
10.0000017057
10.0000014471
10.0000011954
10.0000009649
10.0000007681
10.0000006169
10.0000005161
10.000000466
10.000000459
10.000000485
10.000000533
10.0000005943
10.0000006648
10.0000007387
10.0000008147
10.0000008926
10.0000009734
10.0000010584
10.0000011495
10.0000012484
10.000001357
10.0000014767
10.0000016086
10.0000017536
10.0000019121
10.0000020843
10.0000022702
10.0000024703
10.0000026845
10.0000029136
10.0000031579
10.0000034187
10.0000036985
10.0000039975
10.0000043158
10.0000046527
10.0000050074
10.0000053786
10.0000057644
10.0000061628
10.0000065715
10.0000069877
10.0000074089
10.0000078319
10.0000082539
10.0000086718
10.0000090828
10.0000094837
10.000009872
10.0000102449
10.0000106
10.0000109351
10.0000112482
10.0000115374
10.0000118011
10.0000120384
10.0000122476
10.0000124291
10.0000125806
10.0000127049
10.0000127971
10.0000128662
10.0000128976
10.000012918
10.0000128835
10.0000128703
10.00001275
10.0000127409
10.0000124837
10.0000125848
10.000000005
10.0000000671
10.0000001273
10.0000001794
10.0000002291
10.0000002755
10.0000003182
10.0000003573
10.0000003931
10.000000426
10.0000004564
10.0000004848
10.0000005113
10.0000005363
10.0000005606
10.0000005845
10.0000006092
10.0000006349
10.000000663
10.0000006936
10.0000007283
10.000000767
10.0000008106
10.0000008611
10.0000009146
10.000000982
10.0000010424
10.0000011362
10.0000011928
10.0000013325
10.0000013581
10.0000015836
10.0000015208
10.0000019077
10.0000016527
10.0000023254
10.0000017204
10.0000028458
10.0000017072
10.0000034386
10.000001647
10.000004002
10.0000016486
10.000004373
10.0000018499
10.0000044104
10.0000022901
10.0000041317
10.0000028105
10.0000037315
10.0000031476
10.0000033872
10.0000031643
10.0000030852
10.0000029123
10.0000027169
10.0000024887
10.0000022361
10.0000019677
10.0000016907
10.0000014183
10.0000011703
10.0000009628
10.0000008045
10.0000006971
10.0000006398
10.0000006282
10.000000656
10.0000007116
10.0000007871
10.00000087
10.0000009546
10.0000010377
10.0000011183
10.0000011975
10.0000012779
10.0000013628
10.0000014556
10.0000015594
10.0000016768
10.0000018093
10.000001958
10.0000021229
10.0000023039
10.0000025001
10.0000027109
10.0000029354
10.0000031733
10.0000034239
10.0000036869
10.0000039627
10.000004251
10.0000045546
10.0000048732
10.0000052057
10.000005551
10.0000059072
10.0000062727
10.0000066451
10.000007022
10.0000074008
10.0000077789
10.0000081534
10.0000085216
10.0000088807
10.0000092282
10.0000095615
10.0000098784
10.0000101766
10.0000104542
10.0000107094
10.0000109409
10.0000111473
10.000011328
10.0000114814
10.0000116087
10.0000117071
10.0000117809
10.0000118236
10.0000118473
10.0000118334
10.0000118152
10.0000117393
10.0000116962
10.0000115388
10.0000115095
10.0000112208
10.0000113061
9.99999999923
10.0000000652
10.0000001239
10.0000001842
10.0000002435
10.0000002985
10.0000003484
10.0000003935
10.0000004347
10.0000004722
10.0000005069
10.0000005392
10.0000005695
10.0000005981
10.0000006262
10.0000006538
10.0000006826
10.0000007123
10.0000007452
10.0000007801
10.00000082
10.0000008635
10.0000009124
10.0000009681
10.0000010259
10.0000010998
10.0000011612
10.0000012662
10.0000013141
10.000001479
10.0000014705
10.0000017601
10.0000015996
10.0000021473
10.0000016459
10.0000026992
10.0000015294
10.0000034835
10.000001172
10.0000045297
10.0000005718
10.0000057404
9.99999990546
10.0000067971
9.99999956498
10.0000072186
9.99999996374
10.0000067008
10.0000011136
10.0000055022
10.0000024222
10.0000043144
10.0000031759
10.0000035536
10.0000032158
10.0000030555
10.0000028117
10.000002547
10.0000022451
10.0000019235
10.0000016234
10.0000013792
10.0000011649
10.0000009258
10.0000006443
10.0000003701
10.0000001814
10.0000001302
10.0000002201
10.0000004091
10.0000006429
10.0000008763
10.0000010815
10.0000012485
10.0000013808
10.0000014881
10.0000015818
10.0000016723
10.0000017686
10.0000018767
10.0000020008
10.000002143
10.0000023039
10.000002483
10.0000026795
10.0000028923
10.0000031206
10.0000033633
10.0000036195
10.0000038882
10.0000041685
10.0000044594
10.0000047597
10.00000507
10.0000053912
10.0000057219
10.0000060603
10.0000064044
10.0000067521
10.0000071009
10.0000074485
10.0000077924
10.00000813
10.0000084588
10.0000087765
10.0000090806
10.000009369
10.0000096397
10.0000098908
10.0000101206
10.0000103279
10.0000105115
10.0000106702
10.000010804
10.0000109113
10.0000109939
10.0000110487
10.0000110814
10.0000110838
10.0000110709
10.0000110205
10.0000109715
10.0000108634
10.0000107963
10.0000106114
10.0000105643
10.0000102561
10.0000103223
10.0000000062
10.0000000827
10.0000001566
10.0000002208
10.0000002814
10.000000338
10.0000003901
10.000000438
10.0000004822
10.000000523
10.000000561
10.0000005964
10.00000063
10.0000006618
10.0000006932
10.0000007241
10.0000007566
10.0000007899
10.0000008268
10.0000008657
10.00000091
10.0000009578
10.0000010113
10.0000010717
10.0000011335
10.000001213
10.0000012765
10.0000013897
10.0000014337
10.0000016163
10.0000015862
10.0000019223
10.0000016901
10.0000023677
10.000001657
10.0000030625
10.0000013339
10.0000041783
10.0000005086
10.0000059154
9.99999899457
10.0000083581
9.99999684945
10.0000111726
9.99999468968
10.0000133811
9.99999372237
10.0000136649
9.99999501823
10.0000114593
9.99999826127
10.0000079249
10.0000015176
10.0000050831
10.0000031364
10.000003605
10.0000032286
10.0000029481
10.0000025247
10.0000021718
10.0000020662
10.0000019343
10.0000010862
9.99999903789
9.99999605507
9.99999305391
9.99999100952
9.99999043801
9.99999127101
9.99999302725
9.99999512645
9.99999710613
9.99999871417
9.9999998871
10.0000006784
10.0000011862
10.000001508
10.000001721
10.00000188
10.0000020211
10.0000021674
10.0000023316
10.0000025188
10.0000027288
10.0000029578
10.0000032011
10.0000034539
10.0000037133
10.0000039774
10.0000042461
10.0000045194
10.0000047984
10.0000050825
10.0000053732
10.0000056684
10.0000059719
10.0000062822
10.0000065974
10.0000069152
10.0000072332
10.0000075489
10.0000078598
10.0000081633
10.000008457
10.0000087386
10.0000090058
10.0000092565
10.0000094889
10.0000097013
10.0000098923
10.0000100605
10.0000102054
10.0000103256
10.0000104217
10.000010492
10.0000105388
10.0000105588
10.0000105586
10.0000105291
10.0000104872
10.0000104082
10.0000103348
10.0000102019
10.0000101155
10.0000099109
10.0000098484
10.0000095288
10.0000095755
10.0000000006
10.0000000817
10.0000001548
10.0000002279
10.0000002989
10.0000003647
10.0000004249
10.0000004798
10.0000005302
10.0000005765
10.0000006196
10.0000006596
10.0000006975
10.0000007333
10.0000007687
10.0000008033
10.0000008396
10.0000008766
10.0000009174
10.0000009603
10.0000010087
10.0000010607
10.0000011184
10.0000011831
10.0000012494
10.0000013328
10.0000014011
10.000001517
10.0000015672
10.00000175
10.0000017281
10.0000020638
10.0000018351
10.00000253
10.000001778
10.0000033004
10.000001334
10.0000046646
10.0000001107
10.0000071003
9.99999754637
10.0000111623
9.99999316135
10.0000170374
9.99998722531
10.0000237193
9.99998158965
10.0000284567
9.99997957746
10.0000278533
9.99998371493
10.0000210473
9.99999231393
10.0000120998
9.99999971704
10.000005974
10.0000032718
10.0000031189
10.000002488
10.0000033993
10.0000044223
10.0000003545
9.99998556918
9.99995944928
9.99992822028
9.99990151114
9.99988691494
9.99988696831
9.99989930432
9.99991883175
9.99994019438
9.99995944094
9.99997459466
9.99998534501
9.99999236194
9.99999664913
9.99999914104
10.0000005382
10.0000013003
10.0000017024
10.0000019055
10.0000020073
10.0000020747
10.0000021549
10.0000022797
10.0000024648
10.0000027124
10.0000030143
10.0000033565
10.0000037237
10.0000041024
10.0000044824
10.000004857
10.0000052224
10.000005578
10.0000059222
10.00000626
10.0000065922
10.0000069185
10.0000072382
10.0000075503
10.0000078531
10.000008145
10.0000084239
10.000008688
10.0000089352
10.0000091638
10.000009372
10.0000095587
10.0000097225
10.0000098626
10.0000099784
10.0000100694
10.0000101359
10.000010177
10.0000101949
10.0000101872
10.0000101599
10.0000101048
10.0000100386
10.0000099371
10.0000098427
10.0000096909
10.0000095867
10.0000093679
10.000009289
10.0000089628
10.0000089869
10.0000000078
10.0000000999
10.0000001885
10.0000002656
10.0000003381
10.000000406
10.0000004691
10.0000005275
10.000000582
10.0000006325
10.0000006798
10.000000724
10.0000007659
10.0000008057
10.0000008448
10.0000008833
10.0000009231
10.0000009639
10.0000010083
10.000001055
10.000001107
10.0000011631
10.0000012246
10.0000012931
10.000001364
10.0000014496
10.0000015257
10.0000016381
10.0000017054
10.0000018695
10.0000018888
10.0000021691
10.0000020361
10.0000025998
10.0000020456
10.0000033142
10.0000016766
10.0000046638
10.0000004093
10.0000073737
9.99999725846
10.000012667
9.99999077882
10.000022005
9.99997975987
10.0000358346
9.99996505705
10.0000513919
9.99995162176
10.0000615886
9.99994783861
10.0000580237
9.99995972811
10.0000396495
9.99998044586
10.000020202
9.99999625931
10.0000036118
10.0000063833
10.0000147902
9.99999658259
9.99990878441
9.99972858552
9.99948070628
9.99923037445
9.99904820715
9.99897636907
9.99901812868
9.99914619666
9.99931965946
9.99949928211
9.99965736044
9.99978062731
9.99986776764
9.99992452545
9.99995907767
9.99997904975
9.99999025212
9.9999965526
10.0000002543
10.0000025834
10.0000041168
10.0000050968
10.0000056337
10.000005812
10.000005728
10.0000054886
10.0000051958
10.0000049317
10.0000047511
10.0000046811
10.0000047262
10.0000048755
10.0000051098
10.0000054064
10.0000057449
10.0000061045
10.0000064756
10.0000068464
10.0000072084
10.0000075558
10.0000078843
10.0000081915
10.0000084757
10.0000087357
10.0000089709
10.0000091811
10.0000093657
10.000009525
10.0000096584
10.0000097668
10.0000098495
10.000009908
10.0000099412
10.0000099514
10.0000099377
10.0000099021
10.0000098453
10.0000097665
10.000009673
10.0000095521
10.0000094316
10.000009265
10.0000091339
10.0000089053
10.0000087944
10.0000084647
10.0000084422
10.0000000024
10.0000000992
10.0000001874
10.0000002733
10.000000356
10.0000004332
10.0000005046
10.0000005706
10.0000006319
10.0000006888
10.000000742
10.0000007916
10.0000008387
10.0000008833
10.000000927
10.0000009699
10.0000010139
10.0000010588
10.0000011069
10.0000011578
10.0000012135
10.0000012736
10.000001339
10.000001411
10.000001487
10.0000015739
10.0000016591
10.0000017657
10.0000018545
10.0000019923
10.0000020674
10.0000022667
10.0000022777
10.0000026241
10.0000024243
10.000003166
10.0000023322
10.0000041819
10.0000015276
10.0000064186
9.9999988511
10.0000115632
9.99999193042
10.0000226807
9.99997712586
10.000043488
9.99995149123
10.0000748922
9.99991746016
10.000110061
9.99988649655
10.0001328866
9.99987885474
10.0001202143
9.99991222981
10.0000776581
9.99994496806
10.0000391402
10.0000449027
9.99999022962
9.99957748935
9.99860990522
9.99710361361
9.99535918208
9.99382743799
9.99288536843
9.99269132296
9.99318403477
9.99416110338
9.99537073173
9.9965848362
9.99764487074
9.99847470849
9.99906723913
9.99945782114
9.99969782589
9.99983638149
9.99991194748
9.99995107853
9.99997060501
9.99998051523
9.99998632869
9.99999077341
9.99999492343
9.99999897352
10.0000027464
10.0000059955
10.0000085505
10.0000103605
10.0000114774
10.0000120191
10.0000121299
10.0000119516
10.0000116061
10.0000111875
10.0000107627
10.0000103735
10.000010043
10.0000097837
10.0000095949
10.0000094705
10.0000094008
10.0000093758
10.0000093845
10.0000094179
10.0000094663
10.0000095234
10.0000095814
10.0000096371
10.0000096834
10.0000097209
10.0000097415
10.0000097506
10.0000097372
10.0000097127
10.0000096604
10.0000096004
10.0000095074
10.0000094118
10.0000092779
10.000009146
10.0000089739
10.0000088006
10.0000085969
10.0000083649
10.0000081471
10.0000078171
10.0000076333
10.0000000096
10.0000001172
10.0000002202
10.00000031
10.000000394
10.0000004731
10.0000005474
10.0000006173
10.000000683
10.0000007446
10.0000008026
10.0000008572
10.000000909
10.0000009585
10.0000010066
10.000001054
10.000001102
10.0000011512
10.000001203
10.000001258
10.0000013172
10.0000013811
10.0000014502
10.0000015257
10.0000016063
10.0000016951
10.0000017876
10.0000018917
10.000001996
10.0000021178
10.0000022321
10.0000023764
10.0000024944
10.0000026746
10.0000027704
10.0000030397
10.0000030042
10.0000035917
10.0000029625
10.0000047742
10.0000018155
10.000008039
9.99999711032
10.000017256
9.99998314122
10.0000400798
9.99995083763
10.0000854034
9.999894132
10.0001535658
9.99981957161
10.0002324968
9.99974365154
10.0002907493
9.99973694368
10.0002225576
9.99980059483
10.0003389733
9.99990784323
9.99851966534
9.99441877557
9.98736865392
9.97821146429
9.96894931911
9.9618034305