/*--------------------------------*- C++ -*----------------------------------*\
  =========                 |
  \\      /  F ield         | OpenFOAM: The Open Source CFD Toolbox
   \\    /   O peration     | Website:  https://openfoam.org
    \\  /    A nd           | Version:  7
     \\/     M anipulation  |
\*---------------------------------------------------------------------------*/
FoamFile
{
    version     2.0;
    format      ascii;
    class       volScalarField;
    location    "1560";
    object      p;
}
// * * * * * * * * * * * * * * * * * * * * * * * * * * * * * * * * * * * * * //

dimensions      [0 2 -2 0 0 0 0];

internalField   nonuniform List<scalar> 
8192
(
0.000625127386075
0.000453585873695
0.000367991168562
0.000323907121406
0.000298914695399
0.000283709655316
0.000273871869282
0.00026715564406
0.000262353606957
0.000258781640761
0.000256032514235
0.000253852546157
0.000252077131269
0.000250595579942
0.000249331136887
0.000248229168318
0.000247249913174
0.000246363879109
0.000245548824259
0.00024478772124
0.000244067347138
0.000243377283723
0.000242709192191
0.000242056275976
0.000241412873738
0.000240774144171
0.000240135815083
0.000239493977671
0.000238844911928
0.00023818493365
0.000237510253342
0.00023681684105
0.000236100291091
0.000235355682943
0.000234577433884
0.000233759141297
0.00023289341202
0.000231971678978
0.000230984005564
0.000229918882319
0.000228763022075
0.000227501165698
0.00022611591405
0.000224587609553
0.000222894295228
0.000221011786517
0.000218913892845
0.000216572827265
0.000213959834203
0.000211046053314
0.000207803614085
0.000204206930698
0.000200234136379
0.000195868574607
0.000191100248034
0.000185927124756
0.000180356204898
0.000174404261976
0.000168098180444
0.000161474821453
0.000154580356359
0.000147469027145
0.00014020132745
0.000132841674262
0.000125455752802
0.000118107842856
0.000110858490475
0.000103762809044
9.68695224958e-05
9.02206651355e-05
8.38517026455e-05
7.77918132834e-05
7.20641342374e-05
6.66858893611e-05
6.16684103175e-05
5.70171269605e-05
5.27316223718e-05
4.88058404229e-05
4.52285007502e-05
4.19837361472e-05
3.90519223798e-05
3.64106379543e-05
3.40356706452e-05
3.19019884751e-05
2.9984605147e-05
2.82592946909e-05
2.67031335308e-05
2.52948717498e-05
2.40151495387e-05
2.28465854462e-05
2.17737647807e-05
2.0783157028e-05
1.98629862408e-05
1.90030751351e-05
1.81946775206e-05
1.74303106678e-05
1.67035943247e-05
1.60091014677e-05
1.53422225697e-05
1.46990447952e-05
1.40762454327e-05
1.34709992763e-05
1.2880898314e-05
1.23038828472e-05
1.173818223e-05
1.11822642943e-05
1.06347918235e-05
1.00945852973e-05
9.56059056737e-06
9.03185092236e-06
8.50748256133e-06
7.98665323969e-06
7.46856358361e-06
6.95243135452e-06
6.43747899729e-06
5.92292590699e-06
5.40798767267e-06
4.89188678405e-06
4.37388232873e-06
3.85333228745e-06
3.32981256252e-06
2.80333746156e-06
2.27476681337e-06
1.74656983724e-06
1.22430735274e-06
7.19669492916e-07
2.57942025541e-07
-3.47530594829e-08
0.000476205363504
0.000412699872502
0.000363029351688
0.000330402447407
0.00030850708569
0.000293350408258
0.000282552324665
0.000274647268364
0.000268709727851
0.000264141296234
0.000260546012294
0.000257655849807
0.000255285355994
0.000253303520066
0.000251615986896
0.000250153584915
0.000248864775496
0.000247710582887
0.000246661122336
0.000245693177476
0.000244788478735
0.000243932458567
0.000243113335844
0.000242321431115
0.000241548645362
0.00024078805606
0.00024003359756
0.000239279801648
0.000238521581675
0.000237754048242
0.000236972345022
0.000236171497607
0.00023534626897
0.000234491017194
0.000233599551272
0.000232664982738
0.00023167957104
0.000230634562865
0.000229520026318
0.000228324684031
0.000227035751036
0.000225638787748
0.00022411758146
0.00022245407556
0.000220628369272
0.000218618816055
0.000216402250007
0.000213954369997
0.000211250304543
0.000208265370098
0.000204976016598
0.000201360933109
0.000197402261796
0.000193086850015
0.000188407457227
0.000183363832575
0.000177963582963
0.000172222761615
0.000166166114303
0.00015982693019
0.000153246452309
0.000146472818125
0.000139559525819
0.000132563478701
0.00012554275061
0.000118554323602
0.000111652106646
0.00010488547081
9.82983959432e-05
9.19291602237e-05
8.58103755124e-05
7.99691564109e-05
7.44272700588e-05
6.9201204664e-05
6.43021701152e-05
5.97360913214e-05
5.5503668531e-05
5.16005716416e-05
4.8017809806e-05
4.47422858783e-05
4.17575098502e-05
3.90444191908e-05
3.65822378982e-05
3.43493067731e-05
3.23238279124e-05
3.04844861914e-05
2.88109296297e-05
2.72841091368e-05
2.58864897928e-05
2.46021541906e-05
2.34168202288e-05
2.23177962061e-05
2.12938926789e-05
2.03353079992e-05
1.9433499976e-05
1.85810535695e-05
1.77715508569e-05
1.69994479713e-05
1.62599612e-05
1.55489638487e-05
1.48628938795e-05
1.41986723833e-05
1.35536319394e-05
1.29254543009e-05
1.23121161808e-05
1.17118424342e-05
1.11230654664e-05
1.05443902436e-05
9.9745639416e-06
9.41244980312e-06
8.85700453736e-06
8.30725913225e-06
7.76230285426e-06
7.22127082216e-06
6.68333571087e-06
6.14770503077e-06
5.61362617545e-06
5.0804031123e-06
4.54743073382e-06
4.0142567131e-06
3.48068648258e-06
2.94695672872e-06
2.41401882089e-06
1.88400176325e-06
1.3609738832e-06
8.52249724599e-07
3.70124371734e-07
1.46312157567e-08
0.000393236052612
0.000370580201085
0.000344606983746
0.00032339263448
0.000307296273267
0.000295007121846
0.000285504774694
0.000278061118385
0.000272153932584
0.000267403982337
0.000263533032975
0.000260335152212
0.000257656632539
0.000255381756891
0.000253422632656
0.000251711892243
0.000250197422707
0.000248838536016
0.000247603164979
0.00024646579297
0.000245405910957
0.000244406856392
0.000243454929896
0.000242538715984
0.0002416485539
0.000240776120064
0.000239914093455
0.000239055881215
0.00023819539009
0.000237326832501
0.000236444555285
0.000235542884898
0.000234615982703
0.000233657706372
0.000232661473223
0.000231620123611
0.000230525782194
0.000229369717444
0.000228142199845
0.000226832362427
0.000225428068149
0.000223915792947
0.00022228053517
0.000220505767524
0.000218573450146
0.000216464128682
0.000214157142024
0.000211630965793
0.000208863711792
0.000205833795772
0.00020252076874
0.000198906288672
0.000194975186114
0.000190716560568
0.000186124832365
0.000181200676059
0.000175951766553
0.000170393280577
0.000164548102229
0.000158446690076
0.000152126568294
0.000145631413831
0.000139009722577
0.00013231307923
0.00012559414021
0.000118904562762
0.000112293195838
0.000105804768516
9.94791654908e-05
9.33512127924e-05
8.74507599839e-05
8.18028480804e-05
7.64278260426e-05
7.1341374298e-05
6.65544622971e-05
6.20733047942e-05
5.78993871618e-05
5.40296204979e-05
5.04566622268e-05
4.71694091645e-05
4.41536370156e-05
4.13927367982e-05
3.88684842686e-05
3.6561780868e-05
3.44533153446e-05
3.25241145753e-05
3.07559692551e-05
2.91317368364e-05
2.76355333536e-05
2.62528327638e-05
2.49704930402e-05
2.37767286161e-05
2.26610452805e-05
2.16141517719e-05
2.06278582019e-05
1.96949697368e-05
1.88091806301e-05
1.79649728098e-05
1.71575208626e-05
1.63826050917e-05
1.56365327255e-05
1.49160676492e-05
1.42183679305e-05
1.35409309399e-05
1.2881545079e-05
1.22382477352e-05
1.16092884981e-05
1.09930972748e-05
1.03882564961e-05
9.79347717737e-06
9.20757827044e-06
8.62946928882e-06
8.05813599574e-06
7.49262950675e-06
6.93205916216e-06
6.37559020241e-06
5.82244761211e-06
5.27192849634e-06
4.72342628942e-06
4.17647183087e-06
3.63079849615e-06
3.08644205136e-06
2.54389099857e-06
2.00431084207e-06
1.46987396384e-06
9.4415977465e-07
4.31875060482e-07
2.82574983968e-08
0.000348656479758
0.000340283868898
0.000326109972668
0.000312336857973
0.000300926667034
0.000291667750661
0.000284106976351
0.000277875944343
0.000272696477442
0.000268356015283
0.000264688807115
0.000261563785006
0.000258876479136
0.000256543237976
0.000254496861657
0.000252683200003
0.000251058466561
0.000249587108916
0.000248240118609
0.000246993689796
0.000245828153628
0.000244727130039
0.000243676850119
0.000242665612175
0.000241683342069
0.000240721234908
0.00023977146051
0.000238826915189
0.000237881012171
0.000236927502096
0.000235960312991
0.000234973405447
0.000233960638008
0.000232915639145
0.000231831682567
0.000230701563879
0.000229517476927
0.000228270889639
0.000226952419781
0.000225551713081
0.000224057327493
0.000222456630333
0.000220735717419
0.000218879367489
0.000216871048468
0.000214692996692
0.000212326392632
0.000209751658278
0.000206948898022
0.000203898497463
0.000200581879465
0.000196982397327
0.000193086321686
0.000188883858988
0.000184370128413
0.000179546026367
0.00017441891722
0.00016900310109
0.000163320016141
0.000157398138222
0.000151272544552
0.000144984109481
0.000138578295712
0.000132103526985
0.000125609219568
0.000119143714404
0.000112752488283
0.000106476919093
0.000100353700584
9.44147983805e-05
8.86876716487e-05
8.31955143415e-05
7.79573800164e-05
7.29881697011e-05
6.82985342552e-05
6.38947712353e-05
5.97787945367e-05
5.59482396184e-05
5.23967411194e-05
4.91143884693e-05
4.60883313045e-05
4.33034809283e-05
4.07432410338e-05
3.83902045839e-05
3.62267678793e-05
3.42356333596e-05
3.24001913109e-05
3.0704785992e-05
2.91348803931e-05
2.7677138575e-05
2.63194446003e-05
2.5050875867e-05
2.38616454352e-05
2.27430253559e-05
2.16872597159e-05
2.06874740794e-05
1.97375856136e-05
1.88322170304e-05
1.79666159514e-05
1.71365808284e-05
1.63383936181e-05
1.55687593517e-05
1.48247521622e-05
1.41037674891e-05
1.34034798102e-05
1.27218054962e-05
1.2056870136e-05
1.14069799531e-05
1.07705967602e-05
1.01463161744e-05
9.53284869794e-06
8.92900354136e-06
8.33367501109e-06
7.74583156664e-06
7.1645076797e-06
6.5887989627e-06
6.01786119548e-06
5.45091435162e-06
4.88725315936e-06
4.32626659091e-06
3.76746982142e-06
3.21055418921e-06
2.65546332255e-06
2.10250492326e-06
1.55248984064e-06
1.00675560866e-06
4.66288933716e-07
3.05607153222e-08
0.000321011097718
0.00031906130074
0.000311280388404
0.00030210436665
0.000293837957995
0.000286818306655
0.000280888319483
0.000275842642794
0.000271512942091
0.000267769561458
0.000264511257318
0.000261656799833
0.000259139573639
0.000256904197891
0.000254904291032
0.000253100862913
0.000251461067398
0.000249957185311
0.000248565773503
0.000247266945672
0.000246043762983
0.000244881718203
0.000243768299369
0.000242692620911
0.000241645111247
0.00024061724749
0.000239601329171
0.00023859028028
0.000237577478027
0.0002365566034
0.000235521504693
0.000234466072308
0.000233384121265
0.000232269278755
0.000231114874223
0.000229913830342
0.000228658553439
0.000227340822946
0.000225951679981
0.000224481316673
0.000222918968997
0.000221252818383
0.000219469909649
0.000217556096676
0.00021549603092
0.000213273212774
0.000210870129479
0.000208268506335
0.000205449696499
0.000202395228517
0.000199087516023
0.000195510712951
0.000191651671368
0.000187500936908
0.000183053704879
0.000178310664928
0.000173278677012
0.000167971236858
0.000162408694914
0.000156618195217
0.00015063330415
0.000144493295078
0.000138242027191
0.000131926349559
0.000125594061631
0.000119291698971
0.000113062639509
0.000106945888416
0.000100975650929
9.51815265498e-05
8.95889396999e-05
8.4219498326e-05
7.90911414163e-05
7.4218085876e-05
6.96106592011e-05
6.52751217059e-05
6.12135693101e-05
5.7423986206e-05
5.39004880023e-05
5.06337609132e-05
4.76116641284e-05
4.48199329433e-05
4.22429070513e-05
3.98642148869e-05
3.76673638276e-05
3.56362103194e-05
3.37553049368e-05
3.2010122734e-05
3.03871970633e-05
2.88741779953e-05
2.74598352024e-05
2.61340226531e-05
2.48876187245e-05
2.37124522821e-05
2.26012221197e-05
2.15474150939e-05
2.05452262675e-05
1.95894833042e-05
1.86755762075e-05
1.77993930582e-05
1.69572617778e-05
1.61458978534e-05
1.5362357612e-05
1.46039967066e-05
1.38684332777e-05
1.31535153899e-05
1.24572922269e-05
1.17779886806e-05
1.11139828948e-05
1.04637864778e-05
9.82602704918e-06
9.19943293347e-06
8.58281979358e-06
7.97507914075e-06
7.37516868097e-06
6.782104626e-06
6.19495620566e-06
5.61284289521e-06
5.03493520497e-06
4.46046049667e-06
3.88871614603e-06
3.31909342821e-06
2.75111544817e-06
2.18448547889e-06
1.61910474643e-06
1.05487194866e-06
4.90688662824e-07
3.10772005178e-08
0.000302640000156
0.000303558181453
0.000299535911245
0.000293418128136
0.000287337258022
0.00028191531707
0.000277202894115
0.000273105093257
0.000269515307521
0.000266345038276
0.000263524907529
0.000261000097372
0.000258726148025
0.000256666056228
0.000254788423431
0.000253066272379
0.0002514762519
0.000249998060308
0.000248613993915
0.000247308572067
0.000246068214086
0.000244880955714
0.000243736198156
0.000242624485453
0.000241537306756
0.000240466921034
0.000239406200344
0.000238348486941
0.000237287465643
0.000236217049573
0.00023513127213
0.000234024185477
0.000232889763312
0.000231721806098
0.000230513847001
0.000229259057166
0.000227950149134
0.000226579277766
0.000225137938461
0.000223616863514
0.000222005918496
0.000220294002572
0.000218468958966
0.00021651750548
0.000214425199127
0.000212176454504
0.000209754640792
0.000207142287037
0.00020432142634
0.000201274104777
0.000197983066378
0.0001944326014
0.000190609513926
0.000186504136602
0.000182111306261
0.000177431222514
0.000172470134868
0.000167240824971
0.000161762854473
0.000156062546486
0.000150172675536
0.000144131837153
0.000137983408002
0.00013177394354
0.000125550965061
0.000119360444813
0.000113244673824
0.000107241016285
0.000101381683446
9.56942572331e-05
9.02024061839e-05
8.49263943173e-05
7.98832478845e-05
7.50866406846e-05
7.0546634364e-05
6.62694079997e-05
6.22570829078e-05
5.85077201995e-05
5.5015537599e-05
5.1771351799e-05
4.87632063621e-05
4.59771090029e-05
4.33977881628e-05
4.10093896837e-05
3.87960603896e-05
3.67423954452e-05
3.48337506845e-05
3.30564368179e-05
3.13978191267e-05
2.98463471361e-05
2.83915357576e-05
2.70239153433e-05
2.57349636061e-05
2.45170287536e-05
2.33632500352e-05
2.2267479807e-05
2.12242094788e-05
2.02285007362e-05
1.92759225667e-05
1.83624942703e-05
1.74846342198e-05
1.66391140855e-05
1.58230180389e-05
1.50337065194e-05
1.42687840451e-05
1.35260706638e-05
1.28035765736e-05
1.20994795683e-05
1.14121049115e-05
1.07399073645e-05
1.00814550493e-05
9.4354149403e-06
8.80053974621e-06
8.17565605325e-06
7.55965359511e-06
6.9514756473e-06
6.35011061069e-06
5.75458507195e-06
5.16395885414e-06
4.57732295403e-06
3.99380150855e-06
3.41255852322e-06
2.83280664493e-06
2.25380179189e-06
1.67476392137e-06
1.09455088685e-06
5.10735857949e-07
3.20001197556e-08
0.00028974195282
0.00029189297983
0.000290117402645
0.00028611639807
0.000281641489453
0.000277410206845
0.000273612340814
0.000270242600236
0.00026724386131
0.00026455588041
0.00026212777744
0.000259918851719
0.000257896535469
0.000256034227499
0.000254309648972
0.00025270372256
0.000251199833455
0.000249783337396
0.00024844121923
0.000247161840763
0.000245934741555
0.000244750472103
0.000243600448109
0.000242476819724
0.000241372352377
0.000240280318383
0.000239194394418
0.000238108564988
0.000237017033302
0.00023591413892
0.000234794276671
0.000233651818015
0.000232481033541
0.000231276015348
0.000230030598083
0.000228738277469
0.000227392125253
0.000225984699713
0.000224507951198
0.000222953122787
0.000221310647099
0.000219570041871
0.000217719809235
0.000215747347126
0.000213638886019
0.000211379470476
0.000208953012128
0.000206342447745
0.000203530039988
0.000200497855686
0.000197228442173
0.00019370569417
0.000189915864794
0.000185848636766
0.000181498151377
0.00017686390635
0.000171951470976
0.000166772997556
0.000161347507409
0.000155700917041
0.000149865786114
0.000143880780529
0.000137789738916
0.00013164005898
0.000125480209637
0.000119356725914
0.000113311668502
0.00010738129748
0.000101596128821
9.59819235343e-05
9.05607855039e-05
8.53518470308e-05
8.03714332504e-05
7.56328491726e-05
7.11459952931e-05
6.69169820063e-05
6.29478627713e-05
5.92365719011e-05
5.57771218911e-05
5.25600685709e-05
4.95731940357e-05
4.68023109624e-05
4.42320769799e-05
4.18467255042e-05
3.9630655817e-05
3.75688633339e-05
3.5647219713e-05
3.38526284069e-05
3.21730863056e-05
3.0597680256e-05
2.9116542081e-05
2.77207798112e-05
2.64023975082e-05
2.51542118137e-05
2.39697702437e-05
2.28432740891e-05
2.17695073589e-05
2.0743772297e-05
1.97618314633e-05
1.8819856055e-05
1.7914379989e-05
1.70422591952e-05
1.62006355653e-05
1.53869050131e-05
1.45986891474e-05
1.38338100936e-05
1.30902680498e-05
1.23662212015e-05
1.16599676603e-05
1.09699291249e-05
1.02946359974e-05
9.63271371134e-06
8.98287006281e-06
8.34388336251e-06
7.71459126922e-06
7.09388021647e-06
6.48067542074e-06
5.87393155139e-06
5.27262423155e-06
4.67574250817e-06
4.08228194073e-06
3.49123605153e-06
2.90157803479e-06
2.31220872691e-06
1.72180872922e-06
1.12846215729e-06
5.28871114131e-07
3.44150922841e-08
0.000280274043591
0.000282893708018
0.000282469373899
0.00027995218516
0.00027669341328
0.000273389007532
0.000270305047968
0.000267504299677
0.000264972773367
0.000262675149837
0.000260575232512
0.000258641877224
0.000256849638419
0.000255177850816
0.000253609492214
0.000252130232832
0.000250727735668
0.000249391167769
0.000248110863619
0.000246878090424
0.000245684878727
0.000244523894015
0.0002433883337
0.000242271839985
0.000241168422722
0.000240072391194
0.000238978285672
0.000237880812921
0.000236774785655
0.000235655064356
0.000234516497809
0.000233353863428
0.000232161806426
0.00023093477693
0.000229666963992
0.000228352225467
0.000226984012609
0.00022555528833
0.000224058438119
0.000222485173073
0.000220826425028
0.000219072235212
0.000217211639827
0.000215232559533
0.000213121704892
0.00021086451716
0.000208445172934
0.000205846691197
0.000203051188995
0.000200040332513
0.000196796016548
0.000193301272694
0.000189541356559
0.000185504912798
0.000181185090034
0.000176580498824
0.00017169596507
0.000166543079023
0.000161140529066
0.000155514173928
0.000149696840534
0.000143727896591
0.000137652488443
0.000131519957377
0.000125380968176
0.000119283753451
0.000113270925304
0.00010737801233
0.000101633940775
9.606269595e-05
9.06849279837e-05
8.55188291334e-05
8.05802496215e-05
7.58823303956e-05
7.14349521322e-05
6.72442083917e-05
6.33120310886e-05
5.96360612469e-05
5.6209832379e-05
5.30232797873e-05
5.00635119024e-05
4.73157183191e-05
4.47640729962e-05
4.23925199141e-05
4.01853795169e-05
3.81277636688e-05
3.62058204587e-05
3.44068460508e-05
3.27193028972e-05
3.11327783394e-05
2.96379094677e-05
2.82262922654e-05
2.68903865554e-05
2.56234236089e-05
2.44193200297e-05
2.3272599556e-05
2.21783231568e-05
2.11320271737e-05
2.01296688727e-05
1.91675786715e-05
1.82424182391e-05
1.73511437393e-05
1.64909735095e-05
1.56593595786e-05
1.48539624613e-05
1.4072628769e-05
1.33133712031e-05
1.25743505809e-05
1.1853859556e-05
1.11503077609e-05
1.0462208104e-05
9.78816400181e-06
9.12685732757e-06
8.47703690353e-06
7.8375073594e-06
7.20711822803e-06
6.58475313508e-06
5.96931894141e-06
5.35973454104e-06
4.7549186162e-06
4.15377447044e-06
3.55516717836e-06
2.95788142042e-06
2.36053343776e-06
1.76138233962e-06
1.15795016887e-06
5.46372129461e-07
3.89451249042e-08
0.000273071498773
0.000275804669771
0.000276192037031
0.000274718927473
0.000272391850839
0.000269828093059
0.000267321512301
0.000264980179752
0.000262825353406
0.000260844361866
0.000259014682074
0.000257313515777
0.000255720887873
0.000254220137287
0.000252797510403
0.000251441553177
0.000250142552332
0.000248892092247
0.000247682725591
0.000246507735178
0.000245360962605
0.000244236683224
0.00024312951224
0.000242034331156
0.000240946227129
0.000239860443626
0.000238772329808
0.000237677293498
0.000236570759345
0.000235448126135
0.000234304722469
0.000233135760857
0.000231936289449
0.000230701140468
0.000229424874395
0.000228101718744
0.000226725500199
0.000225289568698
0.000223786712035
0.000222209059591
0.000220547974257
0.000218793932448
0.000216936394077
0.000214963667559
0.000212862780501
0.00021061937493
0.000208217657449
0.000205640448258
0.000202869385878
0.000199885349629
0.000196669150291
0.000193202501183
0.000189469217111
0.000185456515592
0.000181156253806
0.000176565965157
0.00017168965468
0.000166538390905
0.00016113070188
0.000155492695572
0.000149657884381
0.000143666880675
0.000137566927985
0.000131410467682
0.00012525176516
0.000119142020312
0.000113125172946
0.000107236235852
0.000101502440315
9.59458860173e-05
9.05858159815e-05
8.5439675093e-05
8.05230938239e-05
7.58492869201e-05
7.14282856383e-05
6.72662428103e-05
6.33649336119e-05
5.97215490201e-05
5.63288696616e-05
5.31758442042e-05
5.024848984e-05
4.7530947754e-05
4.50065099824e-05
4.2658480136e-05
4.04708028829e-05
3.84284609546e-05
3.65176775746e-05
3.4725976489e-05
3.30421495893e-05
3.14561719519e-05
2.99590924644e-05
2.854291794e-05
2.72005010938e-05
2.59254375575e-05
2.47119740153e-05
2.3554927662e-05
2.24496163224e-05
2.1391798093e-05
2.037761932e-05
1.9403569702e-05
1.84664434763e-05
1.75633057202e-05
1.66914629847e-05
1.58484375516e-05
1.50319447511e-05
1.42398728277e-05
1.34702649545e-05
1.27213030174e-05
1.19912928756e-05
1.12786508116e-05
1.05818909404e-05
9.89961334716e-06
9.23049276062e-06
8.57326755906e-06
7.92672892147e-06
7.28970990324e-06
6.66107416753e-06
6.03970394698e-06
5.42448648173e-06
4.814297428e-06
4.20797812896e-06
3.6043002719e-06
3.00190472142e-06
2.3991889802e-06
1.79409931034e-06
1.18376992721e-06
5.6398356119e-07
4.59967907727e-08
0.000267437914147
0.000270123336855
0.00027099393705
0.000270255792415
0.000268644454855
0.000266679578144
0.000264650852296
0.000262691504278
0.000260848909914
0.000259129795564
0.000257524390107
0.000256017914233
0.000254595467484
0.000253243769397
0.00025195152191
0.000250709236195
0.000249508901417
0.000248343650255
0.000247207474602
0.000246095001525
0.00024500132305
0.000243921868722
0.000242852310018
0.000241788487543
0.000240726353976
0.000239661930054
0.000238591262113
0.00023751038172
0.000236415274279
0.000235301844896
0.000234165883238
0.000233003026495
0.000231808719499
0.000230578171028
0.00022930630517
0.000227987706483
0.000226616557467
0.000225186566586
0.000223690884862
0.000222122008856
0.000220471667916
0.0002187306941
0.000216888874632
0.00021493478981
0.00021285564487
0.000210637113636
0.000208263225586
0.000205716346153
0.000202977319417
0.000200025855054
0.000196841233933
0.000193403363661
0.000189694130662
0.00018569889046
0.000181407871227
0.000176817306799
0.00017193026865
0.000166757302619
0.000161316914448
0.000155635747529
0.000149748378617
0.000143697123197
0.000137532066826
0.00013131004802
0.00012509065774
0.000118929623304
0.000112873053397
0.000106955484038
0.000101202089603
9.56328091035e-05
9.02654863663e-05
8.51170446273e-05
8.02031983837e-05
7.55375101549e-05
7.1130351463e-05
6.69880178863e-05
6.31120893464e-05
5.94991321762e-05
5.61408661428e-05
5.30248429666e-05
5.0135528239e-05
4.74555590214e-05
4.49669347666e-05
4.26519731038e-05
4.04939647853e-05
3.84775446868e-05
3.65888398e-05
3.48154657907e-05
3.31464346222e-05
3.15720193525e-05
3.00836060598e-05
2.86735501396e-05
2.73350455076e-05
2.60620098583e-05
2.48489861404e-05
2.36910589367e-05
2.25837838653e-05
2.15231280299e-05
2.05054196893e-05
1.9527305549e-05
1.85857143266e-05
1.76778254756e-05
1.68010421491e-05
1.59529676571e-05
1.51313848e-05
1.43342375771e-05
1.35596148451e-05
1.28057355824e-05
1.20709354514e-05
1.13536544071e-05
1.06524251137e-05
9.96586196484e-06
9.2926504947e-06
8.63153698089e-06
7.98131799342e-06
7.34082960254e-06
6.70893581004e-06
6.08451553397e-06
5.46644695947e-06
4.85358712839e-06
4.24474278825e-06
3.6386251426e-06
3.03377515131e-06
2.42843673345e-06
1.82034441752e-06
1.20639036314e-06
5.82168234653e-07
5.58361132136e-08
0.000262938316351
0.000265506877497
0.000266658717677
0.00026643729242
0.000265375256795
0.000263896304606
0.000262267817266
0.000260632600588
0.000259055274047
0.000257557939502
0.000256142104346
0.000254800597166
0.000253523484904
0.000252300743752
0.00025112329311
0.000249983258554
0.000248873904621
0.000247789450741
0.000246724867133
0.000245675689898
0.000244637867414
0.000243607638143
0.000242581435401
0.000241555813488
0.000240527390871
0.000239492805118
0.000238448673254
0.000237391553519
0.00023631791778
0.000235224121543
0.000234106373561
0.000232960703734
0.000231782928208
0.000230568610496
0.000229313017389
0.000228011068153
0.000226657275284
0.000225245674664
0.000223769742536
0.000222222296264
0.000220595375507
0.00021888010046
0.000217066504772
0.000215143343262
0.000213097880108
0.000210915673182
0.000208580386597
0.000206073686878
0.000203375306114
0.000200463378889
0.000197315160725
0.000193908189381
0.000190221840562
0.000186239077186
0.000181948079917
0.00017734349542
0.000172427284602
0.000167209400017
0.000161708416475
0.00015595180051
0.000149975561952
0.000143824073671
0.000137550935993
0.000131218915316
0.000124895206664
0.000118642135612
0.000112508970335
0.000106529577033
0.000100726368786
9.51166709511e-05
8.97169391715e-05
8.45438769192e-05
7.96136550117e-05
7.49404891282e-05
7.05352798684e-05
6.64045307539e-05
6.2549556944e-05
5.89660753421e-05
5.56443641617e-05
5.25700816623e-05
4.97255992889e-05
4.7091531654e-05
4.46481391775e-05
4.23763975774e-05
4.02586744954e-05
3.82790589698e-05
3.64234367064e-05
3.46794071271e-05
3.30361190668e-05
3.14840773381e-05
3.00149510604e-05
2.86213992841e-05
2.72969198375e-05
2.60357219017e-05
2.48326202484e-05
2.36829480633e-05
2.25824852069e-05
2.15273990125e-05
2.05141951915e-05
1.95396768206e-05
1.86009098157e-05
1.76951935969e-05
1.68200359479e-05
1.59731312503e-05
1.51523414705e-05
1.43556793714e-05
1.3581293546e-05
1.28274549167e-05
1.2092544425e-05
1.13750416513e-05
1.0673514154e-05
9.98660731118e-06
9.31303446469e-06
8.65156713046e-06
8.00102500267e-06
7.36026536834e-06
6.72817137195e-06
6.10363822763e-06
5.48555587718e-06
4.87278551642e-06
4.26412554058e-06
3.65825930096e-06
3.05367212255e-06
2.44851844074e-06
1.84041430151e-06
1.22613407711e-06
6.01216411672e-07
6.8618527913e-08
0.000259289600093
0.000261715656604
0.000263023169653
0.000263163847626
0.000262522357394
0.000261437390827
0.000260145656857
0.000258788726515
0.000257440858944
0.00025613535544
0.000254883084031
0.00025368375952
0.000252532218602
0.000251421662496
0.000250345198378
0.000249296479531
0.000248269894366
0.00024726054641
0.000246264150187
0.000245276904342
0.000244295369782
0.000243316363538
0.000242336870704
0.000241353973017
0.000240364793722
0.000239366451042
0.000238356018275
0.000237330487348
0.000236286741214
0.000235221525527
0.000234131420253
0.000233012809892
0.000231861851086
0.000230674436303
0.000229446152187
0.000228172230889
0.000226847492349
0.000225466274974
0.000224022351506
0.000222508826127
0.000220918008065
0.000219241256438
0.000217468791236
0.000215589467199
0.000213590512311
0.000211457243093
0.000209172787554
0.00020671787591
0.000204070797916
0.00020120766456
0.000198103127624
0.000194731665743
0.000191069405744
0.000187096226667
0.000182797704329
0.000178166497675
0.000173203166863
0.000167916872412
0.000162326262668
0.000156459941891
0.00015035576238
0.000144060355686
0.000137631345506
0.000131139302813
0.00012466222767
0.000118271964838
0.000112022201101
0.000105945600467
0.000100060622369
9.43813419483e-05
8.89229108342e-05
8.37022429838e-05
7.87364159785e-05
7.40406090712e-05
6.96263954546e-05
6.55004886342e-05
6.16637978724e-05
5.81108733252e-05
5.48300499682e-05
5.18044598153e-05
4.90137116134e-05
4.64357847542e-05
4.4048699226e-05
4.18317135001e-05
3.97660091255e-05
3.78349527819e-05
3.60240723942e-05
3.43208734068e-05
3.27145876926e-05
3.1195912559e-05
2.97567700811e-05
2.83900991781e-05
2.7089682648e-05
2.58500063665e-05
2.46661459146e-05
2.35336756178e-05
2.24485954364e-05
2.14072718819e-05
2.0406389881e-05
1.94429131788e-05
1.85140514114e-05
1.76172324229e-05
1.67500787195e-05
1.59103872213e-05
1.50961116448e-05
1.43053470078e-05
1.35363158378e-05
1.27873557581e-05
1.20569081663e-05
1.13435077774e-05
1.06457728076e-05
9.96239560587e-06
9.29213350647e-06
8.63379966833e-06
7.98625357003e-06
7.34839072449e-06
6.71913092749e-06
6.09740398757e-06
5.48213120358e-06
4.87219977934e-06
4.26642555486e-06
3.66349668687e-06
3.06188699368e-06
2.45972326158e-06
1.85458830804e-06
1.24324666553e-06
6.2129826283e-07
8.4402003131e-08
0.000256300139825
0.000258578092103
0.000259962314709
0.000260355078467
0.0002600345276
0.000259268176553
0.000258259864337
0.0002571431611
0.000255996027698
0.000254859120807
0.000253750579196
0.000252676027635
0.000251634696965
0.000250622913587
0.000249635968312
0.000248669045362
0.000247717631698
0.00024677765255
0.000245845471724
0.000244917832034
0.000243991775259
0.00024306456095
0.000242133592565
0.000241196353549
0.000240250356583
0.000239293099036
0.000238322021319
0.000237334473334
0.000236327685994
0.000235298743421
0.000234244555263
0.000233161827841
0.00023204703282
0.000230896372026
0.000229705736848
0.000228470660354
0.000227186259821
0.000225847166665
0.000224447439977
0.00022298045868
0.000221438786126
0.000219813999681
0.000218096477096
0.000216275132213
0.000214337096505
0.000212267353146
0.000210048350835
0.000207659660003
0.000205077785964
0.000202276313967
0.000199226601653
0.000195899200753
0.000192266018013
0.000188302906036
0.000183992052473
0.000179323537764
0.000174296030624
0.000168917452379
0.000163206336538
0.000157192787371
0.000150917053065
0.00014442798459
0.000137787361419
0.000131075926852
0.000124387237253
0.000117806975592
0.000111394965258
0.000105181610634
9.91794943812e-05
9.33986471391e-05
8.78531875567e-05
8.25608463796e-05
7.75401115482e-05
7.28073663975e-05
6.83748621769e-05
6.42493808499e-05
6.04311509006e-05
5.69130886e-05
5.36809015523e-05
5.0714366194e-05
4.79894862542e-05
4.54808698434e-05
4.31637292271e-05
4.10152123537e-05
3.90150659931e-05
3.71457898182e-05
3.53924765119e-05
3.37424997733e-05
3.21851584833e-05
3.07113375412e-05
2.93132125167e-05
2.79840053992e-05
2.6717788649e-05
2.55093306051e-05
2.43539744376e-05
2.32475434193e-05
2.21862664837e-05
2.11667192455e-05
2.01857767871e-05
1.92405753883e-05
1.83284811073e-05
1.74470636245e-05
1.65940741846e-05
1.57674267396e-05