/*--------------------------------*- C++ -*----------------------------------*\
  =========                 |
  \\      /  F ield         | OpenFOAM: The Open Source CFD Toolbox
   \\    /   O peration     | Website:  https://openfoam.org
    \\  /    A nd           | Version:  7
     \\/     M anipulation  |
\*---------------------------------------------------------------------------*/
FoamFile
{
    version     2.0;
    format      ascii;
    class       surfaceScalarField;
    location    "1560";
    object      phi;
}
// * * * * * * * * * * * * * * * * * * * * * * * * * * * * * * * * * * * * * //

dimensions      [0 3 -1 0 0 0 0];

internalField   nonuniform List<scalar> 
16192
(
6.92910677447e-10
2.44589322553e-10
4.93538366332e-10
1.99372314724e-10
3.64795953932e-10
1.2874241523e-10
2.82215855457e-10
8.25801005676e-11
2.27600663228e-10
5.46151938642e-11
1.90005033272e-10
3.75956314731e-11
1.63084565893e-10
2.69204689293e-11
1.43125078968e-10
1.99594885833e-11
1.27891107902e-10
1.52339728267e-11
1.15989374214e-10
1.19017355847e-11
1.06518908352e-10
9.47046787168e-12
9.88758944028e-11
7.64301611519e-12
9.26421134969e-11
6.23378319922e-12
8.75192774079e-11
5.12283855982e-12
8.32891496988e-11
4.23013031713e-12
7.97885607377e-11
3.50059176052e-12
7.68932772377e-11
2.89528643772e-12
7.45072925684e-11
2.38598780126e-12
7.25555299849e-11
1.9517658428e-12
7.09787543019e-11
1.57677912683e-12
6.9729947809e-11
1.24881004036e-12
6.87716812489e-11
9.5827027027e-13
6.80741743389e-11
6.97510688937e-13
6.76138452332e-11
4.60333015349e-13
6.73722114236e-11
2.41637744701e-13
6.73350491663e-11
3.71662844623e-14
6.74917440409e-11
-1.56690869703e-13
6.78347853842e-11
-3.43037287254e-13
6.83593687669e-11
-5.24579395086e-13
6.90630828545e-11
-7.03710085087e-13
6.9945658068e-11
-8.82571316751e-13
7.1008761489e-11
-1.06309953264e-12
7.22558219706e-11
-1.2470567186e-12
7.36918737151e-11
-1.43604799061e-12
7.53234035963e-11
-1.63152624469e-12
7.71581902032e-11
-1.83478294872e-12
7.92051179602e-11
-2.04692417157e-12
8.1473951382e-11
-2.26882974456e-12
8.39750489509e-11
-2.50109387677e-12
8.67189977344e-11
-2.74394488531e-12
8.97161448268e-11
-2.99714304771e-12
9.29760054536e-11
-3.25985621916e-12
9.65065262556e-11
-3.53051607756e-12
1.00313192355e-10
-3.80666082259e-12
1.043979742e-10
-4.08477605795e-12
1.08758131707e-10
-4.36015096648e-12
1.13384913078e-10
-4.62677412934e-12
1.18262218854e-10
-4.87729760324e-12
1.23365328152e-10
-5.10310027857e-12
1.28659814574e-10
-5.29447636996e-12
1.3410078959e-10
-5.4409640864e-12
1.39632611811e-10
-5.53181030592e-12
1.45189171194e-10
-5.55654674661e-12
1.5069481887e-10
-5.50563432443e-12
1.56065957361e-10
-5.37112482196e-12
1.61213262098e-10
-5.14729087796e-12
1.66044461861e-10
-4.83118624082e-12
1.70467581e-10
-4.42310618119e-12
1.74394513433e-10
-3.92692066108e-12
1.77744768563e-10
-3.35024483267e-12
1.80449174398e-10
-2.70439768047e-12
1.82453257874e-10
-2.0040777396e-12
1.83719934968e-10
-1.26667438114e-12
1.84231102934e-10
-5.11168403615e-13
1.83987795275e-10
2.43303695137e-13
1.83008815676e-10
9.78972276383e-13
1.81328139076e-10
1.68066586995e-12
1.78991657741e-10
2.33646766842e-12
1.76053939327e-10
2.93770200995e-12
1.72575520714e-10
3.47840009913e-12
1.68620944703e-10
3.95455567042e-12
1.64257453194e-10
4.36346997888e-12
1.59554071381e-10
4.70335935307e-12
1.54580793764e-10
4.97325479631e-12
1.49407649998e-10
5.17312077744e-12
1.44103548455e-10
5.30407886128e-12
1.38734904486e-10
5.36862169951e-12
1.33364154359e-10
5.37072863281e-12
1.28048304622e-10
5.31582902303e-12
1.22837684168e-10
5.21060076064e-12
1.17775036515e-10
5.06262888195e-12
1.12895040052e-10
4.87997874649e-12
1.08224273401e-10
4.67074981137e-12
1.037815855e-10
4.44267199043e-12
9.9578782273e-11
4.20278802236e-12
9.56215247468e-11
3.95724304014e-12
9.19103301652e-11
3.71118058143e-12
8.84415866063e-11
3.46873004758e-12
8.52085110653e-11
3.23306230258e-12
8.22020086178e-11
3.00648949733e-12
7.94114084232e-11
2.79058734847e-12
7.68250721268e-11
2.5863235925e-12
7.44308785364e-11
2.39418088178e-12
7.22165982768e-11
2.21426760899e-12
7.01701724653e-11
2.04641310787e-12
6.82799130289e-11
1.89024676293e-12
6.6534638746e-11
1.74526155918e-12
6.49237620656e-11
1.61086400337e-12
6.34373372004e-11
1.48641217855e-12
6.20660803706e-11
1.37124423651e-12
6.08013688227e-11
1.26469900961e-12
5.9635225789e-11
1.16613065314e-12
5.85602950021e-11
1.07491853764e-12
5.75698092051e-11
9.90473776573e-13
5.66575542294e-11
9.12243165635e-13
5.58178312246e-11
8.39711493852e-13
5.50454172988e-11
7.72402700225e-13
5.43355258717e-11
7.09880565154e-13
5.36837660978e-11
6.5174926464e-13
5.30861016451e-11
5.97654362759e-13
5.25388073813e-11
5.47284584444e-13
5.20384231608e-11
5.00375006372e-13
5.15817021761e-11
4.56712228753e-13
5.11655514224e-11
4.16142499082e-13
5.07869597126e-11
3.78583950435e-13
5.04429076474e-11
3.44044833728e-13
5.01302505209e-11
3.12650417301e-13
4.98455615003e-11
2.84682857176e-13
4.95849150659e-11
2.60640813146e-13
4.93435799345e-11
2.41330070697e-13
4.91155714546e-11
2.2800398219e-13
4.88929821083e-11
2.22585431357e-13
4.86649571627e-11
2.28021622329e-13
4.84161119781e-11
2.48842459969e-13
4.81241494522e-11
2.91960372544e-13
4.77568311806e-11
3.67316633599e-13
4.7271035469e-11
4.85794569354e-13
6.23325077914e-13
9.53395935478e-10
2.2869339143e-10
8.59618347267e-10
2.93149908147e-10
7.45068414757e-10
2.43292351634e-10
6.41895419918e-10
1.85753098168e-10
5.56727215219e-10
1.39783400858e-10
4.88360459803e-10
1.05962389161e-10
4.33771494743e-10
8.15094364052e-11
3.90005906599e-10
6.37250793559e-11
3.54648671786e-10
5.05912104906e-11
3.25842045033e-10
4.07083654454e-11
3.02185714244e-10
3.31268020264e-11
2.82627008953e-10
2.72017250666e-11
2.66370158424e-10
2.24906376793e-11
2.52807952323e-10
1.8685048939e-11
2.41472092133e-10
1.55659950951e-11
2.31997549233e-10
1.29751395884e-11
2.24096980201e-10
1.07958607067e-11
2.1754225003e-10
8.94072354037e-12
2.12150963826e-10
7.34305789558e-12
2.07776543474e-10
5.95120562339e-12
2.04300832724e-10
4.72452716664e-12
2.01628525183e-10
3.63058442611e-12
1.99682920174e-10
2.64312247069e-12
1.98402658261e-10
1.74060186668e-12
1.97739186315e-10
9.05116701542e-13
1.97654772888e-10
1.21586800485e-13
1.9812094071e-10
-6.22851619314e-13
1.99117217381e-10
-1.3393068923e-12
2.0063012955e-10
-2.0374846004e-12
2.02652384279e-10
-2.72595792706e-12
2.05182188334e-10
-3.41236864609e-12
2.08222666553e-10
-4.1035711436e-12
2.11781342742e-10
-4.80572648074e-12
2.15869651319e-10
-5.52435024767e-12
2.20502445857e-10
-6.26431460548e-12
2.25697472179e-10
-7.02980312261e-12
2.31474768865e-10
-7.82421473763e-12
2.37855957893e-10
-8.65001252309e-12
2.44863382513e-10
-9.50851207581e-12
2.52519050206e-10
-1.0399605782e-11
2.60843335757e-10
-1.13214213474e-11
2.69853406126e-10
-1.22699186361e-11
2.79561335368e-10
-1.32384365575e-11
2.89971898525e-10
-1.42172141381e-11
3.01080058261e-10
-1.51929247564e-11
3.12868200697e-10
-1.61482809007e-11
3.25303224445e-10
-1.70617838239e-11
3.38333648463e-10
-1.79077057985e-11
3.51886959671e-10
-1.86563938921e-11
3.65867472129e-10
-1.92749693595e-11
3.80154989081e-10
-1.97284598522e-11
3.9460454914e-10
-1.99813475469e-11
4.09047479662e-10
-1.99994532018e-11
4.23293894205e-10
-1.97520238789e-11
4.37136659228e-10
-1.9213864567e-11
4.50356752774e-10
-1.83673594184e-11
4.62729843195e-10
-1.7204252777e-11
4.74033843646e-10
-1.57270846087e-11
4.84057121894e-10
-1.39501797304e-11
4.92606968521e-10
-1.19000759428e-11
4.99517825898e-10
-9.61524418533e-12
5.04658667361e-10
-7.14491366925e-12
5.07938793743e-10
-4.54680129351e-12
5.09311278229e-10
-1.88365976551e-12
5.08773458848e-10
7.81109674105e-13
5.06364353368e-10
3.38805815643e-12
5.02159541014e-10
5.88545283928e-12
4.96264587225e-10
8.23139110428e-12
4.88808257242e-10
1.03939974208e-11
4.79936510021e-10
1.23501095175e-11
4.6980771852e-10
1.40833069243e-11
4.58589035102e-10
1.558211163e-11
4.46453492129e-10
1.68388597047e-11
4.33577355572e-10
1.7849348647e-11
4.20137351446e-10
1.86130826055e-11
4.06307580558e-10
1.91338084389e-11
3.92256134895e-10
1.94200273368e-11
3.78141597698e-10
1.9485227455e-11
3.64109708634e-10
1.93476814532e-11
3.50290507781e-10
1.90297668771e-11
3.36796224789e-10
1.8556878939e-11
3.23720083517e-10
1.7956088873e-11
3.11136063808e-10
1.72547399405e-11
2.99099545987e-10
1.64791616851e-11
2.87648672006e-10
1.56536350496e-11
2.76806213443e-10
1.47996756756e-11
2.66581727086e-10
1.39356417577e-11
2.56973805214e-10
1.3076627353e-11
2.47972265635e-10
1.22345776925e-11
2.39560175293e-10
1.141855594e-11
2.31715641894e-10
1.06350969583e-11
2.24413346073e-10
9.88859570386e-12
2.17625810611e-10
9.18169259574e-12
2.11324423169e-10
8.51563128761e-12
2.05480236916e-10
7.89057551976e-12
2.00064580315e-10
7.3058795069e-12
1.95049505949e-10
6.76031203469e-12
1.90408108667e-10
6.25223745284e-12
1.86114738364e-10
5.77975871663e-12
1.82145131003e-10
5.34082800846e-12
1.78476475974e-10
4.93333065276e-12
1.75087436165e-10
4.55514738986e-12
1.7195813231e-10
4.20419967165e-12
1.69070102024e-10
3.8784817993e-12
1.66406240143e-10
3.57608327834e-12
1.63950726403e-10
3.29520405962e-12
1.61688943524e-10
3.03416503344e-12
1.59607388591e-10
2.79141566581e-12
1.57693578216e-10
2.56554055177e-12
1.55935947882e-10
2.35526642484e-12
1.54323743785e-10
2.15947124865e-12
1.52846905214e-10
1.97719704378e-12
1.51495933388e-10
1.80766843644e-12
1.5026174195e-10
1.65031928246e-12
1.49135481791e-10
1.50483042797e-12
1.48108331397e-10
1.37118255582e-12
1.4717124076e-10
1.24972939865e-12
1.46314614726e-10
1.14129827874e-12
1.45527918938e-10
1.04732703975e-12
1.44799192139e-10
9.7004838473e-13
1.44114456066e-10
9.12732656857e-13
1.43457043128e-10
8.7999207599e-13
1.42806945057e-10
8.78114501453e-13
1.42140508856e-10
9.15274557285e-13
1.4143139538e-10
1.0010707829e-12
1.40655164728e-10
1.14354515361e-12
1.39804504714e-10
1.33645336608e-12
1.51308206792e-12
9.76219360499e-10
1.89974033759e-10
9.6296849023e-10
3.06400780434e-10
9.06058815102e-10
3.00202027878e-10
8.33654762462e-10
2.5815715159e-10
7.60751940758e-10
2.12686223159e-10
6.93762676459e-10
1.72951654125e-10
6.34758723524e-10
1.4051339015e-10
5.83845426521e-10
1.14638377383e-10
5.40340471992e-10
9.40961662341e-11
5.03323033132e-10
7.77258057683e-11
4.71872291743e-10
6.45775450966e-11
4.45159170684e-10
5.39148480917e-11
4.22471725675e-10
4.5178084902e-11
4.03212543457e-10
3.79442336895e-11
3.86885874175e-10
3.18926671742e-11
3.73082349167e-10
2.67786677273e-11
3.61464501525e-10
2.24137117416e-11
3.51754197878e-10
1.8651030911e-11
3.4372217117e-10
1.53750885616e-11
3.37179483189e-10
1.24938978647e-11
3.31970629768e-10
9.93338503452e-12
3.27967995906e-10
7.6332229872e-12
3.25067397774e-10
5.54372542136e-12
3.231844937e-10
3.62351094394e-12
3.22251884884e-10
1.83773055967e-12
3.22216764509e-10
1.56712326608e-13
3.23038999791e-10
-1.44508179714e-12
3.2468955479e-10
-2.98985675538e-12
3.27149181411e-10
-4.49710621064e-12
3.3040731762e-10
-5.98408915564e-12
3.34461137408e-10
-7.46618363679e-12
3.39314706934e-10
-8.95713593583e-12
3.44978201322e-10
-1.04692163366e-11
3.51467141358e-10
-1.20132858019e-11
3.58801605403e-10
-1.35987743323e-11
3.67005373681e-10
-1.5233567055e-11
3.76104955734e-10
-1.69237925002e-11
3.86128452567e-10
-1.86735048838e-11
3.97104198608e-10
-2.04842535085e-11
4.09059131588e-10
-2.23545337374e-11
4.22016836714e-10
-2.4279121044e-11
4.35995222987e-10
-2.6248298751e-11
4.51003800533e-10
-2.82470072059e-11
4.67040557437e-10
-3.02539630551e-11
4.84088468454e-10
-3.22408266809e-11
5.02111724552e-10
-3.41715264505e-11
5.21051833194e-10
-3.60018804737e-11
5.4082381771e-10
-3.76796765725e-11
5.61312812826e-10
-3.91453736084e-11
5.82371416331e-10
-4.03335556019e-11
6.03818178613e-10
-4.11752032538e-11
6.25437595708e-10
-4.160074411e-11
6.46981891867e-10
-4.154372764e-11
6.68174761184e-10
-4.09448704728e-11
6.88717086475e-10
-3.97561668359e-11
7.08294514846e-10
-3.79447648768e-11
7.26586641092e-10
-3.5496357137e-11
7.43277452798e-10
-3.24178760347e-11
7.58066589803e-10
-2.87392991221e-11
7.70680874813e-10
-2.45143466599e-11
7.8088545442e-10
-1.98198138943e-11
7.88493765769e-10
-1.47532200577e-11
7.93375398751e-10
-9.42843508316e-12
7.9546086521e-10
-3.96913294434e-12
7.9474247614e-10
1.49948581117e-12
7.91271129675e-10
6.85938593048e-12
7.85149688773e-10
1.20068695744e-11
7.76524351422e-10
1.68566997359e-11
7.65575638682e-10
2.13426774958e-11
7.52510280629e-10
2.5415432022e-11
7.37554565454e-10
2.90389842996e-11
7.20949049784e-10
3.21875882289e-11
7.02944131469e-10
3.48437381926e-11
6.83795913774e-10
3.69975265778e-11
6.63761923288e-10
3.8647033749e-11
6.43096482624e-10
3.97992108131e-11
6.2204577499e-10
4.04706979171e-11
6.00842839891e-10
4.06881271577e-11
5.79702859004e-10
4.04876285973e-11
5.58819130289e-10
3.99134637213e-11
5.38360067862e-10
3.9015911193e-11
5.18467442697e-10
3.7848685622e-11
4.99255915228e-10
3.64662404595e-11
4.80813762906e-10
3.49212884843e-11
4.63204588648e-10
3.32627848752e-11
4.4646973948e-10
3.1534501425e-11
4.30631150881e-10
2.97742076213e-11
4.15694363593e-10
2.80133925252e-11
4.01651505755e-10
2.6277413744e-11
3.88484093678e-10
2.45859465355e-11
3.76165555664e-10
2.29536135654e-11
3.64663432299e-10
2.1390697762e-11
3.53941238535e-10
1.99038649861e-11
3.43960000288e-10
1.84968481636e-11
3.34679490572e-10
1.71710637574e-11
3.26059201077e-10
1.59261475232e-11
3.18059085264e-10
1.47604063029e-11
3.10640111114e-10
1.36711901203e-11
3.03764656451e-10
1.26551919264e-11
2.97396778404e-10
1.17086847702e-11
2.91502382035e-10
1.0827705893e-11
2.86049311162e-10
1.00081974274e-11
2.81007378365e-10
9.24611192795e-12
2.7634834958e-10
8.53749046723e-12
2.72045893707e-10
7.87851946442e-12
2.68075506701e-10
7.26557192488e-12
2.64414415648e-10
6.69523750011e-12
2.61041467863e-10
6.16434551851e-12
2.5793700687e-10
5.66998427575e-12
2.55082736878e-10
5.20951989254e-12
2.52461574755e-10
4.78061760031e-12
2.50057488232e-10
4.38126861387e-12
2.47855316836e-10
4.00982570379e-12
2.45840571721e-10
3.66505114297e-12
2.43999208778e-10
3.346180994e-12
2.42317369496e-10
3.05301037495e-12
2.40781083788e-10
2.78600456076e-12
2.39375931867e-10
2.54644059469e-12
2.3808666826e-10
2.33658199111e-12
2.36896825966e-10
2.15988299717e-12
2.35788349038e-10
2.02120289024e-12
2.34741363404e-10
1.92697201994e-12
2.33734314915e-10
1.8851582933e-12
2.32744928925e-10
1.90465680452e-12
2.31752833016e-10
1.99316389289e-12
2.30745279208e-10
2.15109710906e-12
2.29726383102e-10
2.35534842963e-12
2.52032027178e-12
9.71756826671e-10
1.55717208721e-10
9.86642557615e-10
2.91515049394e-10
9.68094821892e-10
3.18749763273e-10
9.27732764611e-10
2.98519207852e-10
8.77413228549e-10
2.6300575787e-10
8.24661098119e-10
2.25703783213e-10
7.73629064308e-10
1.91545422756e-10
7.26352804853e-10
1.61914635814e-10
6.83648232709e-10
1.36800737547e-10
6.45668190598e-10
1.15705847261e-10
6.12228222217e-10
9.80175130797e-11
5.82990325754e-10
8.31527444044e-11
5.5756320969e-10
7.06052010686e-11
5.35554752757e-10
5.99526910025e-11
5.16597673833e-10
5.08497467524e-11
5.00360513114e-10
4.30158293948e-11
4.86550792258e-10
3.62234338246e-11
4.74914200206e-10
3.02876244763e-11
4.65231925733e-10
2.50573648085e-11
4.57317282448e-10
2.04085431826e-11
4.51012223671e-10
1.62384460618e-11
4.46184041443e-10
1.24614076745e-11
4.42722376856e-10
9.00539262351e-12
4.40536580957e-10
5.80930959931e-12
4.39553418728e-10
2.82089562376e-12
4.39715087493e-10
-4.95354136648e-15
4.40977509468e-10
-2.70750087909e-12
4.4330885531e-10
-5.32119972565e-12
4.46688262371e-10
-7.8765104845e-12
4.51104702941e-10
-1.04005270304e-11
4.56555961865e-10
-1.29174400132e-11
4.63047684244e-10
-1.54488559053e-11
4.70592452086e-10
-1.80139819441e-11
4.79208848585e-10
-2.06296802058e-11
4.88920464936e-10
-2.33103887387e-11
4.99754802878e-10
-2.60679031335e-11
5.11742021201e-10
-2.89110090132e-11
5.24913472552e-10
-3.18449543709e-11
5.39299973039e-10
-3.48707520083e-11
5.5492974837e-10
-3.79843068049e-11
5.71826002402e-10
-4.11753724271e-11
5.9000406501e-10
-4.44263581308e-11
6.09468092724e-10
-4.77110309691e-11
6.30207326608e-10
-5.09931920418e-11
6.52191953759e-10
-5.42254478281e-11
6.75368679612e-10
-5.73482449632e-11
6.99656190731e-10
-6.02893827691e-11
7.24940773956e-10
-6.29642492917e-11
7.51072440741e-10
-6.52770281197e-11
7.77861975917e-10
-6.712307663e-11
8.05079360355e-10
-6.83925717182e-11
8.32453994652e-10
-6.89753606652e-11
8.59677058589e-10
-6.87667723191e-11
8.86406194198e-10
-6.7673985597e-11
9.12272518841e-10
-6.56224702644e-11
9.36889803668e-10
-6.25620282898e-11
9.59865509469e-10
-5.8472042051e-11
9.80813262516e-10
-5.33656094554e-11
9.99366248234e-10
-4.72922673687e-11
1.01519089507e-09
-4.03389790351e-11
1.02800010637e-09
-3.26290146785e-11
1.03756516682e-09
-2.43182747371e-11
1.04372526672e-09
-1.55885346791e-11
1.04639343765e-09
-6.63730940636e-12
1.04555783747e-09
2.33507444406e-12
1.04127803075e-09
1.11391753767e-11
1.03367705455e-09
1.96078232374e-11
1.02293103698e-09
2.76026903189e-11
1.00925842604e-09
3.50152578077e-11
9.92910386125e-10
4.17634385784e-11
9.74162973809e-10
4.77863613251e-11
9.53310872785e-10
5.30396528313e-11
9.30662037868e-10
5.7492536197e-11
9.06532567743e-10
6.11269599335e-11
8.81241328559e-10
6.39382367713e-11
8.55104138035e-10
6.5936366237e-11
8.28427592007e-10
6.71472101884e-11
8.01502835909e-10
6.76128511083e-11
7.74599718886e-10
6.73907151727e-11
7.47961804951e-10
6.6551348989e-11
7.21802642141e-10
6.51750470412e-11
6.96303537064e-10
6.33477653773e-11
6.71612887477e-10
6.11568661785e-11
6.47846946983e-10
5.86872064168e-11
6.25091763711e-10
5.60179466595e-11
6.03405969867e-10
5.32202746809e-11
5.82824089947e-10
5.03560676252e-11
5.63360071755e-10
4.7477391318e-11
5.45010801342e-10
4.46266650827e-11
5.2775942978e-10
4.18372992386e-11
5.11578399908e-10
3.9134624653e-11
4.96432114019e-10
3.65369648848e-11
4.82279221679e-10
3.40567384948e-11
4.69074535909e-10
3.17015150292e-11
4.5677060262e-10
2.94749780368e-11
4.45318959297e-10
2.73777717616e-11
4.34671122155e-10
2.54082242909e-11
4.24779342312e-10
2.35629507994e-11
4.15597168457e-10
2.18373466363e-11
4.07079850849e-10
2.02259833266e-11
3.99184616401e-10
1.87229214252e-11
3.91870841083e-10
1.73219540479e-11
3.85100140853e-10
1.60167937224e-11
3.78836399237e-10
1.48012139921e-11
3.73045745396e-10
1.36691556017e-11
3.67696494231e-10
1.26148058479e-11
3.62759056672e-10
1.16326583178e-11
3.5820582668e-10
1.07175593348e-11
3.54011048869e-10
9.86474651034e-12
3.50150669521e-10
9.0698843173e-12
3.46602171759e-10
8.32910111776e-12
3.43344394887e-10
7.63903196547e-12
3.40357336462e-10
6.99687135149e-12
3.37621935472e-10
6.40044013247e-12
3.35119834523e-10
5.8482707327e-12
3.32833120145e-10
5.33971435804e-12
3.30744042463e-10
4.87507267081e-12
3.28834720907e-10
4.4557534198e-12
3.27086852131e-10
4.08444288514e-12
3.25481453885e-10
3.76527422685e-12
3.23998708137e-10
3.50394250336e-12
3.22618015632e-10
3.30765928914e-12
3.21318449318e-10
3.18472026506e-12
3.20079894729e-10
3.14320791184e-12
3.18885244661e-10
3.18781137158e-12
3.17723727326e-10
3.31261276777e-12
3.1659331634e-10
3.48575855858e-12
3.62263863875e-12
9.6394875921e-10
1.29268449042e-10
9.87711192353e-10
2.67752613827e-10
9.89811189931e-10
3.16649762954e-10
9.72333229697e-10
3.15997165318e-10
9.42220797377e-10
2.93118187322e-10
9.055170911e-10
2.62407486692e-10
8.66413922498e-10
2.30648588708e-10
8.27556006866e-10
2.00772548979e-10
7.90497697171e-10
1.73859044961e-10
7.56076684229e-10
1.5012685813e-10
7.24678643724e-10
1.29415551724e-10
6.96414053079e-10
1.11417333431e-10
6.7123271376e-10
9.57865390124e-11
6.48996376082e-10
8.21890275778e-11
6.29523948792e-10
7.03221732055e-11
6.12619070431e-10
5.99207072095e-11
5.98086471525e-10
5.07560324547e-11
5.8574129135e-10
4.2632804661e-11
5.75414018178e-10
3.53846382452e-11
5.66952751886e-10
2.8869809997e-11
5.60223862474e-10
2.29673362113e-11
5.55111718873e-10
1.75735522227e-11
5.51517906923e-10
1.25992056755e-11
5.49360193899e-10
7.96702386728e-12
5.48571393275e-10
3.6096975699e-12
5.49098218669e-10
-5.31777549925e-13
5.50900170663e-10
-4.50945149295e-12
5.53948477785e-10
-8.36950548923e-12
5.5822509993e-10
-1.21531313596e-11
5.63721778918e-10
-1.58972048436e-11
5.70439119039e-10
-1.96347791139e-11
5.78385674152e-10
-2.33954101435e-11
5.8757701136e-10
-2.72053184658e-11
5.98034717097e-10
-3.10873854081e-11
6.09785305471e-10
-3.50609767477e-11
6.228589848e-10
-3.91415821968e-11
6.37288232428e-10
-4.33402564546e-11
6.53106124857e-10
-4.76628465823e-11
6.70344366293e-10
-5.21089931327e-11
6.89030959395e-10
-5.66708993453e-11
7.09187464518e-10
-6.13318766339e-11
7.30825804602e-10
-6.60646967435e-11
7.53944590238e-10
-7.08298144376e-11
7.78524971074e-10
-7.55735697825e-11
8.04526064e-10
-8.0226536565e-11
8.31880072633e-10
-8.47022480694e-11
8.60487291919e-10
-8.88965950317e-11
8.90211287044e-10
-9.26882356737e-11
9.20874632117e-10
-9.59403626242e-11
9.5225567805e-10
-9.85041100248e-11
9.84086860583e-10
-1.00223739762e-10
1.01605503796e-09
-1.00943521615e-10
1.04780424212e-09
-1.00515958352e-10
1.07894105101e-09
-9.88107748948e-11
1.10904257256e-09
-9.57239712562e-11
1.13766683189e-09
-9.11862665878e-11
1.16436520087e-09
-8.51703902809e-11
1.18869640521e-09
-7.76967940544e-11
1.21024154407e-09
-6.88373884363e-11
1.22861945101e-09
-5.87168710116e-11
1.24350161866e-09
-4.751117123e-11
1.25462578506e-09
-3.54424347518e-11
1.26180703355e-09
-2.27697823017e-11
1.26494493792e-09
-9.77521886948e-12
1.26402529091e-09
3.25471023249e-12
1.25911578447e-09
1.60486647583e-11
1.25035655416e-09
2.83670312055e-11
1.2379478729e-09
4.00113448396e-11
1.22213765824e-09
5.08254421877e-11
1.20321069454e-09
6.06903694447e-11
1.18148015729e-09
6.95168639847e-11
1.15728097221e-09
7.7238802376e-11
1.13096409673e-09
8.38093758116e-11
1.10289088049e-09
8.92001406085e-11
1.07342697411e-09
9.34021083022e-11
1.04293561626e-09
9.64276903978e-11
1.01177044008e-09
9.83123540957e-11
9.80268182436e-10
9.9115078127e-11
9.48741828386e-10
9.89170403338e-11
9.17474758724e-10
9.78183915519e-11
8.86716374873e-10
9.59334055013e-11
8.56679483264e-10
9.33846332219e-11
8.27539485712e-10
9.02968414068e-11
7.99435210872e-10
8.67914602173e-11
7.72471074238e-10
8.29820633088e-11
7.46720187762e-10
7.89711420486e-11
7.22228040538e-10
7.48481963927e-11
6.99016420406e-10
7.06889934865e-11
6.77087315685e-10
6.65557521474e-11
6.56426611742e-10
6.24979857157e-11
6.37007463956e-10
5.85537550298e-11
6.18793284593e-10
5.47511268321e-11
6.01740321841e-10
5.11096837467e-11
5.85799838817e-10
4.76419804557e-11
5.70919918061e-10
4.43548810696e-11
5.57046928078e-10
4.12507439223e-11
5.44126692422e-10
3.83284420327e-11
5.32105403061e-10
3.5584222211e-11
5.20930317254e-10
3.30124144889e-11
5.10550274431e-10
3.0606008262e-11
5.00916064881e-10
2.83571131998e-11
4.91980678332e-10
2.62573230072e-11
4.83699455767e-10
2.42979989341e-11
4.76030164355e-10
2.24704883596e-11
4.68933011377e-10
2.07662918948e-11
4.62370610249e-10
1.91771907129e-11
4.56307908629e-10
1.76953441435e-11
4.50712086488e-10
1.6313366205e-11
4.45552429727e-10
1.50243885626e-11
4.40800183427e-10
1.38221165169e-11
4.36428387164e-10
1.27008839191e-11
4.32411693946e-10
1.16557123969e-11
4.28726173368e-10
1.06823798428e-11
4.25349099503e-10
9.7775026386e-12
4.22258724257e-10
8.93863536259e-12
4.19434038427e-10
8.16439033535e-12
4.16854525335e-10
7.4545766831e-12
4.1449991707e-10
6.81035339082e-12
4.12349971446e-10
6.2343810096e-12
4.10384300734e-10
5.7309382465e-12
4.08582302043e-10
5.3059353254e-12
4.06923264746e-10
4.96669156125e-12
4.05386757843e-10
4.72122300479e-12
4.03953406958e-10
4.57655548722e-12
4.0260606373e-10
4.53515213575e-12
4.0133082392e-10
4.58785099714e-12
4.00115369832e-10
4.70121184198e-12
4.7996461037e-12
9.57564898815e-10
1.09203549539e-10
9.82602233223e-10
2.42715276485e-10
9.95149965012e-10
3.04102028298e-10
9.92463894111e-10
3.18683232709e-10
9.77690790689e-10
3.07891286904e-10
9.54932969159e-10
2.85165304387e-10
9.27642475838e-10
2.57939078331e-10
8.9835273171e-10
2.30062289588e-10
8.68801824071e-10
2.03409949268e-10
8.40125586367e-10
1.78803092707e-10
8.1302966856e-10
1.56511466615e-10
7.87922562262e-10
1.36524437046e-10
7.65012648763e-10
1.18696450069e-10
7.44376940156e-10
1.02824734002e-10
7.26008899175e-10
8.86902122673e-11
7.09851265086e-10
7.60783396542e-11
6.95818320319e-10
6.47889758466e-11
6.83810805073e-10
5.46403188032e-11
6.73725755487e-10
4.54696869783e-11
6.65462861443e-10
3.71327034348e-11
6.58928454219e-10
2.95017430418e-11
6.54037892117e-10
2.24641141279e-11
6.50716872218e-10
1.59202255315e-11
6.48902029899e-10
9.78186627422e-12
6.48541071379e-10
3.97065625492e-12
6.49592604554e-10
-1.5833105095e-12
6.52025770693e-10
-6.94261742289e-12
6.55819753914e-10
-1.21634885363e-11
6.60963209742e-10
-1.7296587103e-11
6.67453627598e-10
-2.2387622725e-11
6.75296633341e-10
-2.74777850401e-11
6.8450522581e-10
-3.26040029581e-11
6.95098930916e-10
-3.77990241091e-11
7.07102849052e-10
-4.30913042513e-11
7.20546563593e-10
-4.85046921684e-11
7.35462872055e-10
-5.40578916557e-11
7.51886294667e-10
-5.97636801437e-11
7.69851310389e-10
-6.56278633653e-11
7.89390265882e-10
-7.16479495885e-11
8.10530902005e-10
-7.78115361896e-11
8.33293444136e-10
-8.40944191193e-11
8.57687211463e-10
-9.04584638695e-11
8.83706716688e-10
-9.68493187394e-11
9.11327257309e-10
-1.03194108536e-10
9.4050004408e-10
-1.0939932033e-10
9.71146977554e-10
-1.1534917716e-10
1.00315526896e-09
-1.20904880485e-10
1.03637220726e-09
-1.25905166206e-10
1.07060048737e-09
-1.30168633017e-10
1.10559461838e-09
-1.33498229195e-10
1.14105899048e-09
-1.35688097864e-10
1.17664816485e-09
-1.36532679812e-10
1.21196983249e-09
-1.35837607813e-10
1.24659067628e-09
-1.33431598757e-10
1.28004510881e-09
-1.29178382549e-10
1.31184662565e-09
-1.22987761446e-10
1.34150136049e-09
-1.14825103115e-10
1.36852334365e-09
-1.04718756022e-10
1.39245088074e-09
-9.27649061216e-11
1.41286335717e-09
-7.91293308779e-11
1.42939768415e-09
-6.40454855911e-11
1.44176351132e-09
-4.78082543188e-11
1.44975601698e-09
-3.07622862897e-11
1.45326447838e-09
-1.32836851098e-11
1.45227454627e-09
4.24463080604e-12
1.44686311901e-09
2.1460074132e-11
1.43718688102e-09
3.80432456896e-11
1.42346756974e-09
5.37306280142e-11
1.40597753491e-09
6.83154454118e-11
1.38502794904e-09
8.16399212707e-11
1.36096013302e-09
9.35846444423e-11
1.33413909859e-09
1.0405980055e-10
1.30494799198e-09
1.13000446125e-10
1.27378236765e-09
1.20365729191e-10
1.24104369905e-09
1.26140742139e-10
1.20713198852e-09
1.30339367527e-10
1.17243769348e-09
1.33006617344e-10
1.13733345218e-09
1.34219289442e-10
1.10216626121e-09
1.34084203171e-10
1.06725079411e-09
1.32733832388e-10
1.03286442938e-09
1.30319745747e-10
9.99244312077e-10
1.27004727703e-10
9.66586481664e-10
1.22954650465e-10
9.35046846206e-10
1.18331075613e-10
9.0474361908e-10
1.13285271436e-10
8.75760771906e-10
1.07953971098e-10
8.48152074264e-10
1.02456876565e-10
8.21945357996e-10
9.68956927701e-11
7.97146729889e-10
9.13543635746e-11
7.73744542966e-10
8.59001561389e-11
7.51713010059e-10
8.05852714886e-11
7.31015401612e-10
7.54487188105e-11
7.11606811022e-10
7.05182577751e-11
6.93436499358e-10
6.58122754461e-11
6.76449848203e-10
6.13415154126e-11
6.60589959178e-10
5.71106160206e-11
6.45798942114e-10
5.31194420669e-11
6.32018934433e-10
4.93642128083e-11
6.19192891774e-10
4.58384400473e-11
6.07265186831e-10
4.25336961513e-11
5.96182049005e-10
3.94402340695e-11
5.85891873523e-10
3.65474817006e-11
5.76345424291e-10
3.38444315953e-11
5.67495951149e-10
3.13199452204e-11
5.59299238405e-10
2.89629886941e-11
5.51713598706e-10
2.67628148684e-11
5.44699823264e-10
2.47091044863e-11
5.38221097375e-10
2.2792077494e-11
5.32242887908e-10
2.10025839645e-11
5.2673280798e-10
1.93321829606e-11
5.21660462479e-10
1.77732165441e-11
5.1699727726e-10
1.63188853861e-11
5.12716314e-10
1.49633315401e-11
5.08792072657e-10
1.37017331134e-11
5.05200283659e-10
1.25304142023e-11
5.01917693164e-10
1.14469713996e-11
4.98921846715e-10
1.04504144377e-11
4.9619088009e-10
9.54131206861e-12
4.93703331173e-10
8.72192273057e-12
4.91437993669e-10
7.99626931779e-12
4.89373841709e-10
7.37008162471e-12
4.87490061197e-10
6.85046720773e-12
4.857662188e-10
6.44506135688e-12
4.84182551751e-10
6.16021934494e-12
4.82720179414e-10
5.99752216292e-12
4.81360480872e-10
5.94754809841e-12
4.80081612795e-10
5.98007921542e-12
6.03237864817e-12
9.52952714916e-10
9.37508326655e-11
9.765617505e-10
2.19106236705e-10
9.93964086383e-10
2.86699688028e-10
1.0004436492e-09
3.12203665563e-10
9.96627729843e-10
3.11707201848e-10
9.84924454625e-10
2.9686857527e-10
9.67874242772e-10
2.74989286008e-10
9.47607607378e-10
2.50328920994e-10
9.25753511416e-10
2.25264041438e-10
9.03496474615e-10
2.01060125922e-10
8.81667487132e-10
1.78340450728e-10
8.60830134151e-10
1.57361786886e-10
8.41351565726e-10
1.38175015596e-10
8.23457671846e-10
1.2071862524e-10
8.07274730545e-10
1.0487315119e-10
7.92860303341e-10
9.04927647492e-11
7.80225882602e-10
7.74233947458e-11
7.69353335377e-10
6.55128644529e-11
7.60206737954e-10
5.46162830788e-11
7.52740814413e-10
4.45986258903e-11
7.46906888801e-10
3.53356677836e-11
7.42657026307e-10
2.67139759397e-11
7.39946860956e-10
1.86303903562e-11
7.38737474041e-10
1.09912527837e-11
7.38996587904e-10
3.71154206755e-12
7.40699266291e-10
-3.28598918331e-12
7.43828248607e-10
-1.00716000291e-11
7.4837402912e-10
-1.67092693876e-11
7.54334736269e-10
-2.32572946769e-11
7.61715850055e-10
-2.97687370629e-11
7.70529780567e-10
-3.62917162587e-11
7.80795315344e-10
-4.28695386225e-11
7.92536930968e-10
-4.95406408107e-11
8.05783953973e-10
-5.63383285236e-11
8.20569546958e-10
-6.32902865913e-11
8.36929487612e-10
-7.04178338849e-11
8.5490070072e-10
-7.7734894904e-11
8.74519496614e-10
-8.52466609123e-11
8.95819464015e-10
-9.29479185378e-11
9.18828961891e-10
-1.00821035386e-10
9.43568154859e-10
-1.08833613026e-10
9.70045542071e-10
-1.16935851472e-10
9.98253943078e-10
-1.25057719394e-10
1.02816592999e-09
-1.33106094145e-10
1.05972873793e-09
-1.40962125807e-10
1.09285875096e-09
-1.48479186324e-10
1.12743575151e-09
-1.55481875539e-10