/*--------------------------------*- C++ -*----------------------------------*\
  =========                 |
  \\      /  F ield         | OpenFOAM: The Open Source CFD Toolbox
   \\    /   O peration     | Website:  https://openfoam.org
    \\  /    A nd           | Version:  7
     \\/     M anipulation  |
\*---------------------------------------------------------------------------*/
FoamFile
{
    version     2.0;
    format      ascii;
    class       volVectorField;
    location    "1560";
    object      U;
}
// * * * * * * * * * * * * * * * * * * * * * * * * * * * * * * * * * * * * * //

dimensions      [0 1 -1 0 0 0 0];

internalField   nonuniform List<vector> 
8192
(
(0.00104346283357 0.000156537166434 0)
(0.000759327388019 0.000127598281423 0)
(0.000549333964969 8.23951457474e-05 0)
(0.000414087558009 5.28512643633e-05 0)
(0.000326282571958 3.49537240731e-05 0)
(0.00026726764576 2.40612041428e-05 0)
(0.000225977343466 1.72291001147e-05 0)
(0.000195974172711 1.27740726933e-05 0)
(0.000173450359597 9.7497426091e-06 0)
(0.000156083508554 7.61711077419e-06 0)
(0.000142405300842 6.06109943788e-06 0)
(0.000131452673763 4.89153031372e-06 0)
(0.000122571525056 3.9896212475e-06 0)
(0.000115303290179 3.27861667829e-06 0)
(0.000109317393348 2.70728340297e-06 0)
(0.000104369734679 2.24037872673e-06 0)
(0.000100276376304 1.85298332014e-06 0)
(9.68963646759e-05 1.52703219281e-06 0)
(9.41202064341e-05 1.24913013939e-06 0)
(9.18619419436e-05 1.00913864117e-06 0)
(9.0053569351e-05 7.99238425827e-07 0)
(8.86410425971e-05 6.13292972973e-07 0)
(8.75813475762e-05 4.46406840919e-07 0)
(8.68403325261e-05 2.94613129823e-07 0)
(8.63910762604e-05 1.54648156609e-07 0)
(8.62126467775e-05 2.37864220559e-08 0)
(8.62891476526e-05 -1.0028215661e-07 0)
(8.66089788321e-05 -2.19543863843e-07 0)
(8.71642586568e-05 -3.35730812855e-07 0)
(8.79503690377e-05 -4.50374454456e-07 0)
(8.89655941904e-05 -5.64845642721e-07 0)
(9.02108285164e-05 -6.80383700891e-07 0)
(9.16893334141e-05 -7.98116299907e-07 0)
(9.34065252388e-05 -9.19070713992e-07 0)
(9.53697774793e-05 -1.0441767966e-06 0)
(9.75882200317e-05 -1.17426108718e-06 0)
(0.000100072517225 -1.31003146981e-06 0)
(0.000102834604379 -1.45205103652e-06 0)
(0.000105887360213 -1.60070008113e-06 0)
(0.000109244189879 -1.7561247266e-06 0)
(0.000112918491239 -1.91817155053e-06 0)
(0.000116922976179 -2.08630798026e-06 0)
(0.000121268820294 -2.25953028964e-06 0)
(0.000125964619911 -2.43626292646e-06 0)
(0.000131015146595 -2.61425667709e-06 0)
(0.00013641990778 -2.79049661855e-06 0)
(0.000142171548662 -2.96113544278e-06 0)
(0.000148254164437 -3.12147046607e-06 0)
(0.000154641630084 -3.26598417828e-06 0)
(0.000161296091344 -3.38846487677e-06 0)
(0.000168166786665 -3.4822170153e-06 0)
(0.000175189376897 -3.54035859579e-06 0)
(0.000182285941123 -3.55618991783e-06 0)
(0.000189365753641 -3.52360596763e-06 0)
(0.000196326896788 -3.43751988606e-06 0)
(0.000203058700454 -3.2942661619e-06 0)
(0.000209444943333 -3.09195919412e-06 0)
(0.000215367707431 -2.83078795596e-06 0)
(0.000220711740437 -2.51322922309e-06 0)
(0.000225369140477 -2.14415669291e-06 0)
(0.000229244123495 -1.7308145155e-06 0)
(0.000232257556654 -1.28260975334e-06 0)
(0.000234350843419 -8.10671603929e-07 0)
(0.000235488664258 -3.27147778314e-07 0)
(0.000235660094854 1.55714364888e-07 0)
(0.000234877831009 6.26542256885e-07 0)
(0.000233175651041 1.07562615677e-06 0)
(0.000230604669963 1.49533930779e-06 0)
(0.000227229182123 1.88012928637e-06 0)
(0.000223122854426 2.22617606345e-06 0)
(0.000218365737867 2.53091562907e-06 0)
(0.000213042174654 2.79262078649e-06 0)
(0.000207239375728 3.01014998596e-06 0)
(0.000201046313693 3.18288306964e-06 0)
(0.000194552604008 3.31079729756e-06 0)
(0.00018784716701 3.39461047122e-06 0)
(0.000181016609882 3.43591788768e-06 0)
(0.000174143397661 3.437266325e-06 0)
(0.000167303973748 3.40213057474e-06 0)
(0.000160567032825 3.33478448681e-06 0)
(0.000153992141237 3.24008248445e-06 0)
(0.000147628849003 3.12318639775e-06 0)
(0.00014151636061 2.98927987928e-06 0)
(0.000135683749696 2.84331007388e-06 0)
(0.000130150635374 2.68978433431e-06 0)
(0.000124928196493 2.53263554569e-06 0)
(0.000120020387144 2.37515557212e-06 0)
(0.000115425226734 2.21998723045e-06 0)
(0.00011113606251 2.06915987365e-06 0)
(0.000107142732597 1.92415327829e-06 0)
(0.000103432586906 1.78597590302e-06 0)
(9.9991347552e-05 1.6552470992e-06 0)
(9.68038084245e-05 1.53227576434e-06 0)
(9.38543851605e-05 1.41713126975e-06 0)
(9.1127533275e-05 1.30970438904e-06 0)
(8.86080547163e-05 1.20975792828e-06 0)
(8.6281313136e-05 1.11696739787e-06 0)
(8.41333765194e-05 1.03095296216e-06 0)
(8.21511035302e-05 9.51303794271e-07 0)
(8.03221872454e-05 8.77596311365e-07 0)
(7.86351674837e-05 8.09407366152e-07 0)
(7.70794205515e-05 7.46323618008e-07 0)
(7.56451333063e-05 6.87947864092e-07 0)
(7.43232666926e-05 6.33903217006e-07 0)
(7.31055125981e-05 5.83835626007e-07 0)
(7.19842466906e-05 5.37415356066e-07 0)
(7.0952479055e-05 4.94337728144e-07 0)
(7.00038036291e-05 4.54323561699e-07 0)
(6.91323468605e-05 4.1711952937e-07 0)
(6.83327153555e-05 3.82498792166e-07 0)
(6.75999417769e-05 3.50262134044e-07 0)
(6.6929427547e-05 3.20240004078e-07 0)
(6.63168802156e-05 2.92295826402e-07 0)
(6.5758242303e-05 2.66331199412e-07 0)
(6.52496071264e-05 2.42293728279e-07 0)
(6.47871151104e-05 2.20188693586e-07 0)
(6.43668212277e-05 2.00096267073e-07 0)
(6.39845196936e-05 1.82197028593e-07 0)
(6.36355050024e-05 1.66810120414e-07 0)
(6.33142368002e-05 1.54451245246e-07 0)
(6.3013856889e-05 1.45922548602e-07 0)
(6.27254742803e-05 1.42454676068e-07 0)
(6.24370811334e-05 1.4593383829e-07 0)
(6.21318842501e-05 1.5925917438e-07 0)
(6.17857673154e-05 1.86854638428e-07 0)
(6.1363827605e-05 2.35082645504e-07 0)
(6.08178346557e-05 3.10908524387e-07 0)
(6.0107996924e-05 3.98928049865e-07 0)
(0.00121017339871 0.000302900936949 0)
(0.00116032914096 0.000315214222637 0)
(0.0010269995277 0.000238102250793 0)
(0.000887656854192 0.000171733247191 0)
(0.000767118486488 0.000124415100622 0)
(0.000668856112014 9.18771332061e-05 0)
(0.000590164450909 6.93951394141e-05 0)
(0.000527217536858 5.35581234811e-05 0)
(0.000476578930166 4.21281173231e-05 0)
(0.000435514058765 3.36704646592e-05 0)
(0.000401937765938 2.72622527348e-05 0)
(0.000374280142846 2.23006343563e-05 0)
(0.000351358187122 1.83836293623e-05 0)
(0.000332273990878 1.52370479992e-05 0)
(0.000316339228452 1.26695202639e-05 0)
(0.000303020570474 1.05444680633e-05 0)
(0.000291900498838 8.76233417242e-06 0)
(0.000282649107348 7.24909525864e-06 0)
(0.000275003656867 5.94868719257e-06 0)
(0.000268753604672 4.81791024014e-06 0)
(0.000263729520767 3.82293581248e-06 0)
(0.00025979478906 2.93686700569e-06 0)
(0.000256839325028 2.13800522216e-06 0)
(0.000254774770198 1.4085983245e-06 0)
(0.000253530780528 7.33922845596e-07 0)
(0.00025305213389 1.01601974366e-07 0)
(0.000253296456703 -4.98907192971e-07 0)
(0.000254232421178 -1.07670027492e-06 0)
(0.000255838302036 -1.63972095711e-06 0)
(0.000258100808851 -2.19498752778e-06 0)
(0.000261014126473 -2.74876157622e-06 0)
(0.000264579107128 -3.30666923279e-06 0)
(0.000268802565949 -3.87378124758e-06 0)
(0.000273696636199 -4.4546548725e-06 0)
(0.000279278142193 -5.05333814411e-06 0)
(0.000285567947543 -5.67333508566e-06 0)
(0.000292590234268 -6.31752890189e-06 0)
(0.000300371665125 -6.98805905129e-06 0)
(0.00030894037786 -7.68614780965e-06 0)
(0.00031832475694 -8.41187242707e-06 0)
(0.000328551927016 -9.16388121284e-06 0)
(0.000339645914805 -9.93905590739e-06 0)
(0.000351625434556 -1.07321296864e-05 0)
(0.000364501269691 -1.15352799749e-05 0)
(0.000378273252343 -1.23377285212e-05 0)
(0.000392926885733 -1.3125396395e-05 0)
(0.000408429712091 -1.38806770901e-05 0)
(0.000424727598661 -1.45824021771e-05 0)
(0.000441741189206 -1.52060762692e-05 0)
(0.000459362836352 -1.57244452668e-05 0)
(0.000477454375175 -1.61084313207e-05 0)
(0.000495846104462 -1.63284210258e-05 0)
(0.000514337298433 -1.6355839967e-05 0)
(0.000532698479275 -1.61649012502e-05 0)
(0.000550675554197 -1.5734393209e-05 0)
(0.000567995783682 -1.50493761897e-05 0)
(0.00058437542142 -1.41026809714e-05 0)
(0.000599528759578 -1.28961221055e-05 0)
(0.000613178217946 -1.14413442506e-05 0)
(0.000625065017865 -9.76020529631e-06 0)
(0.000634959868428 -7.88457079411e-06 0)
(0.000642672955686 -5.85535450166e-06 0)
(0.000648062375106 -3.72062443177e-06 0)
(0.000651040046062 -1.53269002824e-06 0)
(0.000651574231729 6.55624556315e-07 0)
(0.000649688199818 2.794899477e-06 0)
(0.000645455292404 4.84231597391e-06 0)
(0.000638991442072 6.76342961453e-06 0)
(0.000630446620458 8.53228763571e-06 0)
(0.000619996651048 1.01302461546e-05 0)
(0.000607836306267 1.15442320606e-05 0)
(0.000594173922318 1.27651722297e-05 0)
(0.000579227217428 1.3787020197e-05 0)
(0.000563219742529 1.46064662037e-05 0)
(0.000546377412492 1.52231701651e-05 0)
(0.000528924756483 1.56402478721e-05 0)
(0.00051108077789 1.58647353832e-05 0)
(0.00049305454886 1.59078118962e-05 0)
(0.000475040836053 1.57846467048e-05 0)
(0.000457216138506 1.55138352881e-05 0)
(0.000439735508845 1.51164850054e-05 0)
(0.000422730437316 1.46150832765e-05 0)
(0.000406307934288 1.40323134412e-05 0)
(0.000390550790269 1.33899735523e-05 0)
(0.000375518859516 1.27081107661e-05 0)
(0.000361251126688 1.2004427978e-05 0)
(0.000347768281938 1.12939662971e-05 0)
(0.000335075540672 1.05890287364e-05 0)
(0.000323165485343 9.89928959686e-06 0)
(0.000312020762194 9.23202907986e-06 0)
(0.000301616522999 8.59243795635e-06 0)
(0.000291922552299 7.98394834966e-06 0)
(0.000282905060278 7.40855902561e-06 0)
(0.00027452814962 6.86713529382e-06 0)
(0.000266754982454 6.35967272168e-06 0)
(0.000259548683028 5.88552081269e-06 0)
(0.000252873015209 5.44356710008e-06 0)
(0.000246692873354 5.03238493198e-06 0)
(0.0002409746221 4.65034937291e-06 0)
(0.000235686316395 4.29572623678e-06 0)
(0.000230797828465 3.96673898392e-06 0)
(0.000226280903769 3.66161794752e-06 0)
(0.000222109163824 3.37863565395e-06 0)
(0.000218258069974 3.11613156856e-06 0)
(0.000214704858987 2.87252892415e-06 0)
(0.00021142845859 2.64634595423e-06 0)
(0.000208409388753 2.43620334954e-06 0)
(0.000205629652554 2.24082958782e-06 0)
(0.000203072618757 2.0590654825e-06 0)
(0.000200722896702 1.88986930406e-06 0)
(0.000198566202666 1.73232373318e-06 0)
(0.000196589215359 1.58564611209e-06 0)
(0.000194779416705 1.44920362573e-06 0)
(0.000193124912216 1.32253554019e-06 0)
(0.000191614223194 1.20538520218e-06 0)
(0.00019023604044 1.09774552931e-06 0)
(0.00018897892618 9.99923082209e-07 0)
(0.000187830947511 9.12627926987e-07 0)
(0.000186779221545 8.37099425856e-07 0)
(0.000185809351089 7.75282211474e-07 0)
(0.000184904734851 7.3007144899e-07 0)
(0.000184045759484 7.05649604702e-07 0)
(0.000183208952439 7.0792711922e-07 0)
(0.000182366370504 7.45034891043e-07 0)
(0.000181486018711 8.27539939482e-07 0)
(0.000180535398469 9.66951543812e-07 0)
(0.000179494188443 1.16623867868e-06 0)
(0.000178380321197 1.36730057333e-06 0)
(0.00122478039072 0.000267947152121 0)
(0.00124108022447 0.000383712440692 0)
(0.00119617747541 0.000347836402888 0)
(0.00111341668964 0.000284102559845 0)
(0.00102042029006 0.000225580559371 0)
(0.000930889355019 0.000178504987703 0)
(0.000850253695989 0.000142094608996 0)
(0.000779906656029 0.000114152612313 0)
(0.000719478975048 9.25999211038e-05 0)
(0.000667944643279 7.57978695768e-05 0)
(0.00062412500792 6.25307821587e-05 0)
(0.000586900135953 5.19146068213e-05 0)
(0.00055528377367 4.3307982452e-05 0)
(0.000528437932245 3.62427408822e-05 0)
(0.000505662987284 3.03735438524e-05 0)
(0.000486379662939 2.54424366821e-05 0)
(0.000470109984443 2.12541263669e-05 0)
(0.000456459967618 1.76587228489e-05 0)
(0.00044510487619 1.45396137326e-05 0)
(0.00043577705879 1.18048662324e-05 0)
(0.000428256072292 9.38106380874e-06 0)
(0.000422360720431 7.20883674452e-06 0)
(0.000417942651955 5.23958265091e-06 0)
(0.000414881210543 3.4330321988e-06 0)
(0.000413079282294 1.75542224717e-06 0)
(0.000412459935611 1.7811144134e-07 0)
(0.000412963689152 -1.32347738653e-06 0)
(0.000414546274932 -2.77066473451e-06 0)
(0.000417176791169 -4.18213811906e-06 0)
(0.00042083615938 -5.57443013293e-06 0)
(0.000425515811218 -6.96227346104e-06 0)
(0.000431216540379 -8.35885253084e-06 0)
(0.000437947461283 -9.77596340309e-06 0)
(0.000445725019315 -1.12240870717e-05 0)
(0.000454571997927 -1.27123769202e-05 0)
(0.000464516466614 -1.42485569137e-05 0)
(0.000475590610826 -1.58387246322e-05 0)
(0.000487829381313 -1.74870511404e-05 0)
(0.000501268896752 -1.9195369974e-05 0)
(0.000515944531325 -2.09626492924e-05 0)
(0.000531888619713 -2.27843471305e-05 0)
(0.000549127718209 -2.46516591278e-05 0)
(0.000567679375053 -2.65506840086e-05 0)
(0.000587548389101 -2.84615534037e-05 0)
(0.00060872257657 -3.03576009198e-05 0)
(0.000631168123524 -3.22046767047e-05 0)
(0.000654824676957 -3.39607451505e-05 0)
(0.000679600416578 -3.55759247174e-05 0)
(0.000705367443543 -3.69931312003e-05 0)
(0.000731957906661 -3.81494559753e-05 0)
(0.000759161340765 -3.89783443878e-05 0)
(0.000786723695565 -3.94125386604e-05 0)
(0.000814348472048 -3.93876357388e-05 0)
(0.000841700257953 -3.88460123851e-05 0)
(0.000868410782502 -3.77408200979e-05 0)
(0.000894087424846 -3.60397595489e-05 0)
(0.0009183239398 -3.3728390345e-05 0)
(0.00094071302009 -3.08127748118e-05 0)
(0.000960860187265 -2.73212664656e-05 0)
(0.000978398377354 -2.33052304657e-05 0)
(0.000993002450709 -1.8838437171e-05 0)
(0.00100440270092 -1.40148055853e-05 0)
(0.00101239626529 -8.94415128107e-06 0)
(0.00101685520893 -3.7457873343e-06 0)
(0.00101773013846 1.45958111058e-06 0)
(0.00101504870772 6.55836421562e-06 0)
(0.00100890932381 1.14510863448e-05 0)
(0.000999471385725 1.60563781377e-05 0)
(0.000986943993666 2.03114719466e-05 0)
(0.000971574988359 2.41699465852e-05 0)
(0.000953641501494 2.75982663833e-05 0)
(0.000933442313752 3.05726079097e-05 0)
(0.000911291636002 3.30768626543e-05 0)
(0.000887513628955 3.51020001438e-05 0)
(0.00086243701572 3.66464744669e-05 0)
(0.000836389379784 3.77171323213e-05 0)
(0.000809691044873 3.83300641625e-05 0)
(0.000782648713524 3.85109469522e-05 0)
(0.000755549247293 3.82945984324e-05 0)
(0.000728654073147 3.77236675829e-05 0)
(0.000702194686817 3.68465856845e-05 0)
(0.000676369606758 3.57150556768e-05 0)
(0.000651342949071 3.4381427456e-05 0)
(0.000627244594006 3.28962881084e-05 0)
(0.000604171744995 3.13065087519e-05 0)
(0.000582191570002 2.96538733444e-05 0)
(0.000561344569831 2.79743036026e-05 0)
(0.000541648329263 2.6297612722e-05 0)
(0.000523101356383 2.46476745194e-05 0)
(0.000505686783637 2.30428815843e-05 0)
(0.000489375775579 2.14967747352e-05 0)
(0.000474130552296 2.00187478181e-05 0)
(0.000459906989333 1.86147568524e-05 0)
(0.000446656792846 1.72879868488e-05 0)
(0.00043432927415 1.60394491374e-05 0)
(0.000422872762655 1.48684972993e-05 0)
(0.000412235703258 1.37732597361e-05 0)
(0.000402367485682 1.27509936468e-05 0)
(0.000393219051241 1.17983684115e-05 0)
(0.000384743318307 1.09116881783e-05 0)
(0.000376895462681 1.00870633893e-05 0)
(0.000369633083646 9.32054068303e-06 0)
(0.000362916281297 8.60819942375e-06 0)
(0.000356707665885 7.94622225058e-06 0)
(0.000350972315704 7.33094575537e-06 0)
(0.000345677696261 6.75889663009e-06 0)
(0.000340793550303 6.22681762147e-06 0)
(0.000336291765447 5.73168715796e-06 0)
(0.000332146223829 5.27073588961e-06 0)
(0.000328332635998 4.84146324312e-06 0)
(0.000324828359445 4.44165686333e-06 0)
(0.000321612200311 4.06941802089e-06 0)
(0.000318664195243 3.72319624975e-06 0)
(0.000315965368676 3.40183707228e-06 0)
(0.00031349745952 3.10464731006e-06 0)
(0.000311242610096 2.83148347569e-06 0)
(0.000309183010102 2.58286973402e-06 0)
(0.000307300490019 2.36015287899e-06 0)
(0.000305576064082 2.16570177975e-06 0)
(0.000303989436305 2.00315608441e-06 0)
(0.000302518512003 1.87771875014e-06 0)
(0.000301139015963 1.7964570214e-06 0)
(0.000299824434124 1.76849458864e-06 0)
(0.000298546716057 1.80475607155e-06 0)
(0.000297278567642 1.9163101925e-06 0)
(0.000295998791823 2.1085710481e-06 0)
(0.000294701863878 2.36275314926e-06 0)
(0.00029340513762 2.58137749741e-06 0)
(0.00122192436907 0.000221242395187 0)
(0.00125337560594 0.00038266613109 0)
(0.00125103192288 0.000396129146337 0)
(0.00121332965536 0.000356272870043 0)
(0.00115529343562 0.000304442867859 0)
(0.00108932756907 0.000255139479896 0)
(0.00102290570395 0.00021251764026 0)
(0.000959988396263 0.000176993928446 0)
(0.00090240066404 0.00014777401842 0)
(0.000850762510916 0.000123796257939 0)
(0.000805053704202 0.000104060837233 0)
(0.000764939870702 8.77232591975e-05 0)
(0.000729954262684 7.41013030212e-05 0)
(0.000699595495966 6.26540318029e-05 0)
(0.000673377553018 5.2955144913e-05 0)
(0.000650853239646 4.46684781581e-05 0)
(0.000631623235438 3.75277731624e-05 0)
(0.000615337595177 3.13207394479e-05 0)
(0.000601693520601 2.58767701569e-05 0)
(0.000590431493236 2.10575622703e-05 0)
(0.000581330883916 1.67499719017e-05 0)
(0.000574205609673 1.28605636235e-05 0)
(0.000568900107711 9.31143554872e-06 0)
(0.000565285733 6.03700514768e-06 0)
(0.000563257599798 2.98152075739e-06 0)
(0.000562731843982 9.71256225548e-08 0)
(0.000563643262055 -2.65765291279e-06 0)
(0.000565943273458 -5.31907614785e-06 0)
(0.000569598155316 -7.91911468489e-06 0)
(0.0005745874978 -1.04861543591e-05 0)
(0.000580902825476 -1.3045519136e-05 0)
(0.00058854633351 -1.56198347783e-05 0)
(0.000597529687251 -1.82292468996e-05 0)
(0.000607872832429 -2.08914982449e-05 0)
(0.000619602760653 -2.36218643654e-05 0)
(0.000632752171401 -2.64329409207e-05 0)
(0.000647357967411 -2.93342729686e-05 0)
(0.000663459516002 -3.2331813923e-05 0)
(0.000681096605178 -3.54272035307e-05 0)
(0.000700307021702 -3.8616857947e-05 0)
(0.000721123680494 -4.18908758215e-05 0)
(0.000743571243144 -4.52317804044e-05 0)
(0.00076766218095 -4.8613144432e-05 0)
(0.000793392268373 -5.1998179262e-05 0)
(0.000820735539435 -5.53384156857e-05 0)
(0.000849638805357 -5.85726537047e-05 0)
(0.000880015917019 -6.16264084754e-05 0)
(0.0009117420574 -6.44121125531e-05 0)
(0.000944648457406 -6.6830337106e-05 0)
(0.000978518026661 -6.87722446285e-05 0)
(0.00101308245521 -7.01233759821e-05 0)
(0.00104802134721 -7.07687070561e-05 0)
(0.00108296387407 -7.05987199739e-05 0)
(0.00111749328178 -6.95160678846e-05 0)
(0.00115115437634 -6.74423277442e-05 0)
(0.00118346388641 -6.43243476266e-05 0)
(0.00121392340041 -6.01397754803e-05 0)
(0.00124203441407 -5.49014307137e-05 0)
(0.00126731488688 -4.86602025541e-05 0)
(0.00128931657171 -4.15061284448e-05 0)
(0.00130764224092 -3.35672502866e-05 0)
(0.00132196177484 -2.50057566687e-05 0)
(0.00133202587747 -1.60108606478e-05 0)
(0.0013376759708 -6.78812310445e-06 0)
(0.00133884881608 2.45411856335e-06 0)
(0.00133557495566 1.15190792366e-05 0)
(0.00132797125459 2.02334033995e-05 0)
(0.00131622917858 2.84540096351e-05 0)
(0.00130060125633 3.60690785942e-05 0)
(0.00128138803979 4.29944771842e-05 0)
(0.00125892695036 4.91682211998e-05 0)
(0.00123358326182 5.45454342785e-05 0)
(0.00120574266282 5.90952156094e-05 0)
(0.00117580454759 6.27996713672e-05 0)
(0.00114417529363 6.5654573133e-05 0)
(0.00111126109862 6.7670769312e-05 0)
(0.00107746030723 6.88754611875e-05 0)
(0.00104315547387 6.93126260902e-05 0)
(0.00100870563507 6.90421400128e-05 0)
(0.000974439375256 6.81374801346e-05 0)
(0.000940649246139 6.66822132699e-05 0)
(0.000907587954691 6.47657286396e-05 0)
(0.000875466511706 6.24787882483e-05 0)
(0.000844454294055 5.99094367367e-05 0)
(0.000814680774844 5.71396681823e-05 0)
(0.00078623854949 5.42430567078e-05 0)
(0.000759187238281 5.12833761577e-05 0)
(0.000733557863489 4.83141016597e-05 0)
(0.000709357358782 4.53786104491e-05 0)
(0.000686572947918 4.25108772954e-05 0)
(0.000665176211 3.97364724598e-05 0)
(0.000645126728913 3.70737040939e-05 0)
(0.000626375254846 3.45347862278e-05 0)
(0.000608866404856 3.21269524434e-05 0)
(0.000592540888658 2.98534667483e-05 0)
(0.000577337319627 2.77145083423e-05 0)
(0.00056319365213 2.570792358e-05 0)
(0.000550048297259 2.38298501886e-05 0)
(0.000537840966892 2.20752246801e-05 0)
(0.000526513292356 2.04381875819e-05 0)
(0.00051600925904 1.89124014837e-05 0)
(0.00050627549279 1.74912969442e-05 0)
(0.000497261428439 1.61682596162e-05 0)
(0.000488919385658 1.4936770854e-05 0)
(0.000481204572565 1.37905120423e-05 0)
(0.000474075033361 1.27234417746e-05 0)
(0.000467491552578 1.17298533234e-05 0)
(0.000461417525346 1.08044191061e-05 0)
(0.000455818800352 9.9422277031e-06 0)
(0.00045066349977 9.1388186943e-06 0)
(0.000445921818419 8.39021997956e-06 0)
(0.000441565802654 7.69299237078e-06 0)
(0.000437569108063 7.04428611538e-06 0)
(0.000433906734038 6.44191441628e-06 0)
(0.000430554732797 5.88444910509e-06 0)
(0.000427489890988 5.37134382911e-06 0)
(0.00042468938407 4.9030894282e-06 0)
(0.000422130408557 4.48140416927e-06 0)
(0.000419789806744 4.1094559208e-06 0)
(0.00041764371585 3.79210062337e-06 0)
(0.000415667303694 3.53609305191e-06 0)
(0.000413834703212 3.35016403781e-06 0)
(0.000412119337568 3.24472227735e-06 0)
(0.00041049494019 3.23063341847e-06 0)
(0.000408937689209 3.31582416926e-06 0)
(0.000407429742072 3.49677432117e-06 0)
(0.000405962907946 3.73830847245e-06 0)
(0.00040453396093 3.93149370274e-06 0)
(0.00121692720589 0.000182390820968 0)
(0.001249062369 0.000357931304461 0)
(0.00126561432466 0.000406655696786 0)
(0.00125577242856 0.000393290478829 0)
(0.00122531457733 0.000355919324923 0)
(0.00118255224863 0.000312391212739 0)
(0.0011340358487 0.000270204167337 0)
(0.00108414075479 0.000232119798268 0)
(0.00103555437058 0.000198822260805 0)
(0.000989807604096 0.00017013293145 0)
(0.00094768340989 0.000145557161474 0)
(0.000909499325954 0.000124524849815 0)
(0.000875293930777 0.000106490713652 0)
(0.000844946617499 9.09706998914e-05 0)
(0.000818253007919 7.7550028773e-05 0)
(0.000794971532303 6.58793834268e-05 0)
(0.000774851546852 5.56668584188e-05 0)
(0.00075764976824 4.66690746478e-05 0)
(0.000743139398098 3.86828819544e-05 0)
(0.000731114732841 3.15381460349e-05 0)
(0.000721393033191 2.50917006548e-05 0)
(0.000713814772062 1.92223743342e-05 0)
(0.000708242960509 1.38269429114e-05 0)
(0.000704561984526 8.81685341861e-06 0)
(0.000702676215791 4.11557964394e-06 0)
(0.000702508551645 -3.43507898426e-07 0)
(0.000703998969172 -4.61884951811e-06 0)
(0.000707103135006 -8.76205133752e-06 0)
(0.000711791089737 -1.28189707802e-05 0)
(0.000718046002463 -1.68305483994e-05 0)
(0.000725862974692 -2.08334202413e-05 0)
(0.000735247867642 -2.48603302712e-05 0)
(0.000746216118728 -2.89403522623e-05 0)
(0.000758791506212 -3.30989219929e-05 0)
(0.000773004814443 -3.73576739113e-05 0)
(0.000788892345773 -4.17340706114e-05 0)
(0.000806494219026 -4.62408098994e-05 0)
(0.000825852388662 -5.088499261e-05 0)
(0.000847008314336 -5.56670368902e-05 0)
(0.00087000020844 -6.05793319361e-05 0)
(0.000894859791304 -6.5604639399e-05 0)
(0.000921608492237 -7.07142751196e-05 0)
(0.000950253052697 -7.58661410603e-05 0)
(0.00098078051924 -8.10027275676e-05 0)
(0.00101315266245 -8.60492700116e-05 0)
(0.00104729992745 -9.09123155409e-05 0)
(0.00108311511331 -9.54790257925e-05 0)
(0.00112044709054 -9.96175903779e-05 0)
(0.00115909498826 -0.000103179130076 0)
(0.00119880339851 -0.000106001399459 0)
(0.00123925922472 -0.000107914439348 0)
(0.00128009081506 -0.00010874808466 0)
(0.00132086993925 -0.000108340947629 0)
(0.0013611169876 -0.000106550246715 0)
(0.00140030951909 -0.000103261722573 0)
(0.00143789401885 -9.83989087217e-05 0)
(0.00147330050096 -9.19311566925e-05 0)
(0.00150595942789 -8.38799382462e-05 0)
(0.00153532028754 -7.43229797152e-05 0)
(0.00156087103685 -6.33957440299e-05 0)
(0.00158215748459 -5.12897189815e-05 0)
(0.00159880153838 -3.82468540729e-05 0)
(0.00161051700391 -2.45493228677e-05 0)
(0.00161712126174 -1.05040180965e-05 0)
(0.00161854094645 3.57746219299e-06 0)
(0.00161481028824 1.74002176864e-05 0)
(0.00160606229673 3.07039068434e-05 0)
(0.00159251483332 4.32729825014e-05 0)
(0.00157445473993 5.4938047997e-05 0)
(0.00155222294578 6.55704371348e-05 0)
(0.00152620214518 7.50740641983e-05 0)
(0.00149680712288 8.33782113327e-05 0)
(0.00146447684413 9.04332236855e-05 0)
(0.00142966718542 9.62093443468e-05 0)
(0.00139284342694 0.000100697820847 0)
(0.00135447205783 0.000103912996246 0)
(0.00131501187605 0.000105894121142 0)
(0.00127490471841 0.000106705874711 0)
(0.00123456640693 0.000106436963524 0)
(0.00119437861575 0.000105196633946 0)
(0.0011546823255 0.000103109409627 0)
(0.00111577334921 0.000100308735103 0)
(0.00107790014014 9.69303728546e-05 0)
(0.00104126380581 9.31063466458e-05 0)
(0.00100602002247 8.89600063797e-05 0)
(0.00097228240768 8.46025067069e-05 0)
(0.000940126866112 8.01307289714e-05 0)
(0.000909596455004 7.56264862749e-05 0)
(0.000880706391098 7.11567470273e-05 0)
(0.000853448913553 6.67745823707e-05 0)
(0.000827797808446 6.2520562997e-05 0)
(0.000803712479071 5.84243786988e-05 0)
(0.000781141508118 5.45065102346e-05 0)
(0.000760025702821 5.07798371104e-05 0)
(0.000740300644402 4.72511098281e-05 0)
(0.000721898781529 4.39222500377e-05 0)
(0.00070475111712 4.07914664471e-05 0)
(0.000688788541109 3.78541907267e-05 0)
(0.000673942861002 3.51038471202e-05 0)
(0.000660147578679 3.25324746167e-05 0)
(0.00064733845716 3.013122216e-05 0)
(0.000635453915656 2.78907373153e-05 0)
(0.000624435285823 2.58014673002e-05 0)
(0.000614226956878 2.38538895051e-05 0)
(0.000604776432469 2.20386863978e-05 0)
(0.00059603431784 2.03468777989e-05 0)
(0.000587954252082 1.87699215752e-05 0)
(0.000580492796875 1.72997923455e-05 0)
(0.000573609290378 1.59290464467e-05 0)
(0.000567265672418 1.46508805339e-05 0)
(0.000561426285178 1.34591904236e-05 0)
(0.00055605765191 1.23486363919e-05 0)
(0.000551128235081 1.13147207644e-05 0)
(0.000546608174637 1.03538833735e-05 0)
(0.000542469007206 9.46361990098e-06 0)
(0.000538683368118 8.64262700377e-06 0)
(0.000535224680808 7.8909755865e-06 0)
(0.00053206684314 7.2103083588e-06 0)
(0.000529183928651 6.60404729263e-06 0)
(0.000526549934195 6.07757598294e-06 0)
(0.000524138625777 5.63832181041e-06 0)
(0.000521923562745 5.29558454425e-06 0)
(0.000519878414457 5.05980369271e-06 0)
(0.000517977705472 4.9406485754e-06 0)
(0.00051619806124 4.94269664469e-06 0)
(0.000514519608096 5.05629680954e-06 0)
(0.000512925564002 5.23966105635e-06 0)
(0.000511394388397 5.39026223517e-06 0)
(0.00121284153524 0.000152622079092 0)
(0.0012417069645 0.0003266994498 0)
(0.00126576140687 0.000397281146402 0)
(0.00127207286984 0.000406195454738 0)
(0.00126089899827 0.000384646063504 0)
(0.0012368792063 0.000350446586291 0)
(0.0012048482848 0.000312696106905 0)
(0.00116863693283 0.000275734296683 0)
(0.0011309789157 0.000241452156307 0)
(0.00109371354268 0.000210515168536 0)
(0.00105801936315 0.000182993291736 0)
(0.00102460942773 0.000158682733105 0)
(0.000993878535056 0.000137269113012 0)
(0.000966009336908 0.000118408807411 0)
(0.000941046937172 0.000101767926703 0)
(0.000918950505127 8.70393899928e-05 0)
(0.000899628534659 7.39488053129e-05 0)
(0.00088296264025 6.2254799017e-05 0)
(0.000868823398758 5.17467681431e-05 0)
(0.000857080714835 4.22416085964e-05 0)
(0.000847610442023 3.3580210722e-05 0)
(0.000840298461655 2.56241064644e-05 0)
(0.000835043049174 1.82524359725e-05 0)
(0.000831756097355 1.13592896906e-05 0)
(0.000830363584818 4.85142644789e-06 0)
(0.000830805552597 -1.35365635803e-06 0)
(0.000833035760158 -7.32932410614e-06 0)
(0.000837021135749 -1.31411161763e-05 0)
(0.00084274109674 -1.8847819816e-05 0)
(0.000850186775897 -2.45022896439e-05 0)
(0.000859360167 -3.01520410585e-05 0)
(0.000870273189856 -3.5839624385e-05 0)
(0.000882946660305 -4.16027792479e-05 0)
(0.00089740913918 -4.7474361382e-05 0)
(0.000913695624093 -5.34820281063e-05 0)
(0.000931846038815 -5.96476632656e-05 0)
(0.000951903466702 -6.59865194229e-05 0)
(0.000973912067236 -7.25060543665e-05 0)
(0.000997914608813 -7.92044433416e-05 0)
(0.00102394954745 -8.60687587423e-05 0)
(0.00105204758153 -9.30728292821e-05 0)
(0.00108222761958 -0.000100174822792 0)
(0.00111449211402 -0.000107314645233 0)
(0.00114882174336 -0.000114411314124 0)
(0.00118516947289 -0.000121360548413 0)
(0.00122345409385 -0.000128032912147 0)
(0.00126355343777 -0.000134272944331 0)
(0.00130529758478 -0.000139899777203 0)
(0.00134846252456 -0.00014470975721 0)
(0.00139276486768 -0.000148481497101 0)
(0.00143785830967 -0.000150983576081 0)
(0.00148333257941 -0.000151984768913 0)
(0.0015287155183 -0.000151266282345 0)
(0.00157347872561 -0.000148635119137 0)
(0.00161704690245 -0.000143937506435 0)
(0.00165881071005 -0.000137071377942 0)
(0.00169814271113 -0.000127997115773 0)
(0.00173441581065 -0.000116745952049 0)
(0.00176702350361 -0.000103425468517 0)
(0.00179540111226 -8.82215692093e-05 0)
(0.00181904706645 -7.13962603655e-05 0)
(0.0018375431651 -5.32804410052e-05 0)
(0.00185057249811 -3.42605238985e-05 0)
(0.00185793311703 -1.47576985467e-05 0)
(0.00185954497578 4.79957826466e-06 0)
(0.00185544810578 2.40055928898e-05 0)
(0.00184579200002 4.25025772128e-05 0)
(0.00183081884848 5.99948626264e-05 0)
(0.00181084486697 7.62501680637e-05 0)
(0.00178624350973 9.10913860578e-05 0)
(0.00175743237252 0.000104384965393 0)
(0.00172486350823 0.000116031105873 0)
(0.00168901573796 0.00012595828604 0)
(0.00165038743016 0.000134122156671 0)
(0.00160948868268 0.000140507424282 0)
(0.00156683244004 0.000145130917072 0)
(0.00152292459648 0.000148044141721 0)
(0.00147825353322 0.000149333995244 0)
(0.00143327981656 0.000149120795843 0)
(0.0013884269154 0.000147553423322 0)
(0.00134407374304 0.000144802016799 0)
(0.00130054959453 0.000141049190992 0)
(0.00125813170799 0.000136480954798 0)
(0.00121704532984 0.000131278422931 0)
(0.00117746589778 0.000125611094237 0)
(0.00113952281023 0.000119632072414 0)
(0.00110330422155 0.000113475246693 0)
(0.00106886235665 0.000107254199204 0)
(0.00103621893625 0.000101062474062 0)
(0.00100537041463 9.49748107869e-05 0)
(0.000976292833936 8.90489769718e-05 0)
(0.000948946183469 8.33279012113e-05 0)
(0.000923278216086 7.7841882574e-05 0)
(0.000899227718643 7.26107237772e-05 0)
(0.000876727262439 6.76456937486e-05 0)