/*--------------------------------*- C++ -*----------------------------------*\
  =========                 |
  \\      /  F ield         | OpenFOAM: The Open Source CFD Toolbox
   \\    /   O peration     | Website:  https://openfoam.org
    \\  /    A nd           | Version:  7
     \\/     M anipulation  |
\*---------------------------------------------------------------------------*/
FoamFile
{
    version     2.0;
    format      ascii;
    class       volScalarField;
    location    "2.7e+08";
    object      pH;
}
// * * * * * * * * * * * * * * * * * * * * * * * * * * * * * * * * * * * * * //

dimensions      [0 0 0 0 0 0 0];

internalField   nonuniform List<scalar> 
80
(
5.15983
5.79721
6.18434
6.38756
6.45283
6.47005
6.47517
6.47692
6.47755
6.47778
6.47787
6.4779
6.47791
6.47792
6.47792
6.47792
6.47792
6.47792
6.47792
6.47792
6.47792
6.47792
6.47792
6.47792
6.47792
6.47792
6.47792
6.47792
6.47792
6.47792
6.47792
6.47792
6.47792
6.47792
6.47792
6.47792
6.47792
6.47792
6.47792
6.47792
6.47792
6.47792
6.47792
6.47792
6.47792
6.47792
6.47792
6.47792
6.47792
6.47792
6.47792
6.47792
6.47792
6.47792
6.47792
6.47792
6.47792
6.47792
6.47792
6.47792
6.47792
6.47792
6.47792
6.47792
6.47792
6.47792
6.47792
6.47792
6.47792
6.47792
6.47792
6.47792
6.47792
6.47792
6.47792
6.47792
6.47792
6.47792
6.47792
6.47792
)
;

boundaryField
{
    outlet
    {
        type            zeroGradient;
    }
    inlet
    {
        type            zeroGradient;
    }
    frontAndBack
    {
        type            empty;
    }
}


// ************************************************************************* //
