/*--------------------------------*- C++ -*----------------------------------*\
  =========                 |
  \\      /  F ield         | OpenFOAM: The Open Source CFD Toolbox
   \\    /   O peration     | Website:  https://openfoam.org
    \\  /    A nd           | Version:  7
     \\/     M anipulation  |
\*---------------------------------------------------------------------------*/
FoamFile
{
    version     2.0;
    format      ascii;
    class       volScalarField;
    location    "2460";
    object      Ci;
}
// * * * * * * * * * * * * * * * * * * * * * * * * * * * * * * * * * * * * * //

dimensions      [0 -3 0 0 1 0 0];

internalField   nonuniform List<scalar> 
8192
(
9.99999998506
10.0000000522
10.0000001514
10.0000002845
10.000000459
10.0000006689
10.0000009058
10.000001162
10.0000014318
10.0000017107
10.0000019953
10.0000022825
10.0000025699
10.0000028549
10.0000031355
10.0000034089
10.0000036734
10.0000039264
10.000004166
10.0000043897
10.0000045959
10.0000047822
10.000004947
10.0000050881
10.0000052041
10.0000052928
10.0000053531
10.000005383
10.0000053816
10.0000053469
10.0000052784
10.0000051743
10.0000050344
10.0000048572
10.0000046431
10.0000043906
10.0000041008
10.0000037728
10.0000034085
10.0000030077
10.0000025737
10.0000021072
10.0000016127
10.0000010918
10.0000005505
9.99999999139
9.9999994216
9.99999884425
9.99999826751
9.99999769466
9.9999971345
9.9999965903
9.99999607145
9.99999558132
9.99999513031
9.9999947224
9.99999436957
9.999994077
9.99999385856
9.9999937205
9.99999367769
9.99999373561
9.999993907
9.99999419261
9.99999459859
9.9999951173
9.99999574616
9.99999646963
9.99999727913
9.99999815561
9.99999908891
10.0000000601
10.0000010596
10.0000020698
10.0000030818
10.0000040799
10.0000050567
10.0000059988
10.0000069016
10.0000077546
10.0000085558
10.000009298
10.0000099814
10.0000106017
10.0000111609
10.0000116568
10.0000120928
10.0000124684
10.0000127879
10.0000130518
10.000013265
10.0000134281
10.0000135455
10.0000136177
10.0000136495
10.0000136423
10.0000136007
10.000013526
10.0000134227
10.0000132922
10.0000131385
10.0000129629
10.0000127693
10.0000125587
10.0000123348
10.0000120986
10.0000118533
10.0000115997
10.000011341
10.0000110774
10.000010812
10.0000105446
10.0000102779
10.0000100116
10.0000097479
10.0000094859
10.0000092274
10.000008971
10.0000087175
10.0000084646
10.0000082122
10.0000079571
10.0000076988
10.0000074353
10.0000071704
10.0000069122
10.0000066825
10.000006527
10.0000000054
10.0000000898
10.0000001856
10.0000003024
10.0000004494
10.000000627
10.0000008321
10.0000010604
10.000001307
10.0000015672
10.0000018371
10.000002113
10.0000023918
10.0000026706
10.000002947
10.0000032183
10.0000034824
10.0000037366
10.0000039791
10.0000042073
10.0000044196
10.0000046135
10.0000047876
10.0000049396
10.0000050682
10.0000051712
10.0000052475
10.0000052952
10.0000053134
10.0000053003
10.0000052553
10.0000051766
10.0000050642
10.0000049166
10.000004734
10.0000045153
10.0000042609
10.0000039703
10.0000036451
10.0000032853
10.0000028935
10.0000024706
10.0000020203
10.0000015444
10.0000010478
10.000000533
10.0000000062
9.99999947026
9.99999893219
9.99999839512
9.99999786658
9.99999734978
9.9999968528
9.9999963791
9.99999593765
9.99999553264
9.99999517443
9.99999486839
9.99999462646
9.99999445505
9.99999436677
9.99999436742
9.99999446772
9.99999466967
9.99999497854
9.99999538968
9.99999590134
9.99999650252
9.99999718638
9.99999793865
9.99999875059
9.99999960728
10.0000004997
10.0000014133
10.0000023391
10.0000032634
10.0000041782
10.0000050712
10.0000059365
10.000006764
10.0000075498
10.0000082868
10.000008973
10.0000096039
10.0000101795
10.0000106972
10.000011159
10.0000115638
10.0000119147
10.000012212
10.0000124594
10.0000126579
10.00001281
10.0000129163
10.0000129814
10.0000130071
10.0000129974
10.0000129541
10.000012881
10.0000127798
10.0000126543
10.0000125058
10.0000123379
10.0000121521
10.0000119517
10.0000117377
10.0000115135
10.0000112799
10.0000110398
10.0000107939
10.0000105448
10.0000102929
10.0000100405
10.0000097877
10.0000095364
10.0000092862
10.0000090386
10.0000087926
10.0000085489
10.0000083057
10.0000080627
10.000007817
10.0000075678
10.0000073128
10.0000070537
10.0000067984
10.0000065635
10.0000063854
10.0000000069
10.0000000997
10.000000193
10.0000002942
10.0000004133
10.0000005532
10.0000007145
10.0000008964
10.0000010974
10.0000013149
10.0000015463
10.0000017886
10.0000020389
10.0000022942
10.0000025518
10.0000028088
10.0000030631
10.0000033117
10.0000035529
10.0000037838
10.0000040029
10.0000042078
10.0000043969
10.000004568
10.00000472
10.0000048505
10.0000049589
10.0000050428
10.0000051018
10.0000051339
10.0000051387
10.0000051145
10.0000050613
10.0000049774
10.0000048634
10.0000047176
10.0000045412
10.0000043329
10.0000040945
10.0000038251
10.0000035275
10.0000032012
10.0000028501
10.0000024744
10.0000020789
10.0000016642
10.0000012363
10.000000796
10.0000003501
9.99999989939
9.99999945112
9.99999900604
9.99999857189
9.99999814935
9.99999774694
9.99999736567
9.99999701526
9.99999669754
9.99999642372
9.99999619657
9.99999602835
9.99999592191
9.99999588883
9.9999959299
9.99999605345
9.99999625605
9.99999654118
9.99999690098
9.99999733499
9.99999783272
9.99999839168
9.99999900039
9.9999996552
10.0000003441
10.0000010623
10.0000017977
10.0000025449
10.0000032921
10.0000040344
10.000004761
10.0000054679
10.000006146
10.0000067929
10.0000074012
10.0000079701
10.0000084944
10.0000089748
10.0000094078
10.0000097954
10.0000101359
10.0000104321
10.0000106835
10.000010893
10.0000110604
10.0000111893
10.0000112798
10.000011336
10.0000113584
10.0000113509
10.0000113143
10.0000112524
10.000011166
10.0000110589
10.0000109318
10.0000107882
10.000010629
10.0000104574
10.000010274
10.000010082
10.0000098818
10.0000096762
10.0000094654
10.0000092521
10.0000090361
10.0000088197
10.0000086025
10.0000083863
10.0000081703
10.0000079556
10.0000077406
10.0000075257
10.0000073082
10.0000070879
10.0000068619
10.0000066299
10.0000063986
10.0000061736
10.0000059966
10.0000000056
10.0000001054
10.0000001991
10.0000002955
10.0000004027
10.0000005228
10.0000006572
10.0000008062
10.0000009699
10.0000011479
10.000001339
10.0000015418
10.0000017545
10.000001975
10.0000022013
10.000002431
10.0000026618
10.0000028916
10.0000031181
10.0000033393
10.0000035531
10.0000037575
10.0000039509
10.0000041314
10.0000042975
10.0000044474
10.0000045799
10.0000046935
10.0000047873
10.0000048595
10.0000049097
10.0000049365
10.0000049393
10.0000049171
10.0000048698
10.0000047962
10.0000046968
10.0000045707
10.0000044188
10.0000042405
10.0000040373
10.0000038092
10.0000035583
10.0000032851
10.0000029924
10.0000026814
10.0000023555
10.0000020163
10.0000016676
10.0000013113
10.0000009515
10.0000005901
10.0000002315
9.99999987765
9.99999953331
9.99999920073
9.99999888541
9.99999859035
9.99999832202
9.99999808437
9.99999788465
9.99999772717
9.99999761883
9.99999756267
9.99999756329
9.99999762068
9.99999773603
9.99999790615
9.99999812981
9.99999840233
9.99999872178
9.99999908315
9.99999948417
9.99999991936
10.0000003857
10.000000877
10.0000013895
10.0000019165
10.0000024538
10.0000029946
10.0000035346
10.0000040671
10.0000045885
10.0000050927
10.0000055766
10.0000060355
10.0000064674
10.0000068688
10.0000072389
10.0000075755
10.0000078788
10.0000081477
10.0000083833
10.0000085852
10.0000087548
10.0000088925
10.000009
10.000009078
10.0000091286
10.0000091529
10.0000091531
10.0000091302
10.0000090868
10.0000090238
10.0000089438
10.0000088479
10.0000087383
10.0000086163
10.0000084839
10.0000083421
10.000008193
10.0000080373
10.0000078768
10.0000077122
10.000007545
10.0000073755
10.0000072049
10.0000070333
10.0000068614
10.0000066885
10.0000065148
10.0000063387
10.0000061593
10.0000059754
10.0000057852
10.0000055981
10.0000054013
10.0000052805
10.0000000078
10.0000001153
10.0000002155
10.0000003126
10.0000004154
10.0000005262
10.0000006462
10.0000007761
10.0000009165
10.0000010675
10.0000012289
10.0000014
10.00000158
10.0000017677
10.0000019617
10.0000021605
10.0000023624
10.0000025656
10.0000027684
10.0000029689
10.0000031656
10.0000033566
10.0000035404
10.0000037153
10.0000038799
10.0000040328
10.0000041727
10.0000042982
10.0000044083
10.0000045017
10.0000045777
10.0000046349
10.0000046729
10.0000046905
10.0000046876
10.000004663
10.0000046169
10.0000045483
10.0000044578
10.0000043448
10.0000042102
10.0000040537
10.0000038769
10.00000368
10.000003465
10.0000032328
10.0000029859
10.0000027257
10.000002455
10.0000021754
10.0000018901
10.0000016006
10.0000013103
10.0000010208
10.0000007357
10.0000004567
10.0000001882
9.99999993238
9.9999996944
9.99999947739
9.99999928717
9.9999991272
9.99999900296
9.99999891673
9.99999887184
9.99999886774
9.99999890462
9.99999897924
9.99999908995
9.99999923276
9.99999940614
9.99999960665
9.99999983324
10.0000000828
10.0000003543
10.0000006444
10.000000952
10.0000012735
10.0000016074
10.0000019502
10.0000022996
10.0000026519
10.0000030046
10.0000033539
10.0000036973
10.0000040311
10.0000043531
10.0000046602
10.0000049509
10.0000052227
10.0000054747
10.0000057053
10.0000059144
10.0000061009
10.0000062651
10.0000064067
10.0000065263
10.0000066239
10.0000067007
10.000006757
10.000006794
10.0000068125
10.0000068138
10.0000067988
10.0000067691
10.0000067256
10.0000066698
10.0000066026
10.0000065256
10.0000064396
10.0000063462
10.0000062461
10.0000061405
10.0000060302
10.0000059163
10.0000057992
10.0000056798
10.0000055585
10.0000054357
10.0000053113
10.0000051851
10.0000050566
10.0000049242
10.0000047885
10.0000046439
10.0000045092
10.0000043464
10.0000042931
10.0000000081
10.0000001221
10.0000002269
10.0000003284
10.0000004329
10.0000005419
10.0000006563
10.0000007769
10.0000009045
10.0000010394
10.0000011818
10.0000013314
10.0000014881
10.0000016509
10.0000018191
10.0000019917
10.0000021674
10.0000023451
10.0000025234
10.0000027008
10.0000028761
10.0000030478
10.0000032148
10.0000033754
10.0000035287
10.0000036731
10.0000038079
10.0000039314
10.0000040432
10.0000041416
10.0000042263
10.0000042957
10.0000043498
10.0000043868
10.0000044072
10.000004409
10.0000043932
10.0000043578
10.000004304
10.0000042303
10.0000041379
10.0000040259
10.0000038958
10.0000037473
10.0000035822
10.0000034009
10.0000032055
10.000002997
10.0000027777
10.000002549
10.0000023132
10.0000020719
10.0000018275
10.0000015817
10.0000013369
10.0000010953
10.0000008599
10.0000006336
10.0000004204
10.0000002242
10.0000000496
9.99999990099
9.99999978264
9.99999969756
9.99999964753
9.99999963223
9.99999964989
9.99999969704
9.99999977005
9.99999986484
9.99999997843
10.0000001077
10.0000002507
10.000000405
10.0000005694
10.0000007419
10.0000009216
10.0000011069
10.0000012974
10.0000014918
10.0000016898
10.0000018899
10.0000020916
10.000002293
10.0000024935
10.000002691
10.0000028847
10.0000030726
10.0000032538
10.0000034267
10.0000035905
10.0000037438
10.0000038862
10.0000040166
10.0000041348
10.0000042402
10.0000043329
10.0000044124
10.0000044792
10.0000045331
10.0000045747
10.0000046041
10.0000046222
10.0000046292
10.000004626
10.0000046131
10.0000045914
10.0000045615
10.0000045243
10.0000044803
10.0000044305
10.0000043754
10.0000043158
10.0000042521
10.0000041852
10.0000041152
10.000004043
10.0000039685
10.0000038922
10.0000038141
10.0000037339
10.0000036515
10.0000035646
10.0000034767
10.000003376
10.000003293
10.0000031637
10.0000031679
10.0000000099
10.0000001287
10.0000002398
10.0000003452
10.0000004519
10.000000561
10.0000006731
10.0000007889
10.0000009092
10.0000010345
10.000001165
10.0000013007
10.0000014414
10.0000015868
10.0000017363
10.000001889
10.0000020443
10.0000022011
10.0000023584
10.0000025152
10.0000026705
10.0000028231
10.0000029721
10.0000031162
10.0000032547
10.0000033861
10.0000035101
10.0000036247
10.0000037304
10.0000038246
10.0000039085
10.0000039788
10.0000040377
10.0000040809
10.0000041119
10.0000041254
10.0000041258
10.0000041075
10.0000040752
10.0000040238
10.0000039574
10.0000038725
10.000003772
10.0000036545
10.0000035217
10.0000033738
10.0000032122
10.0000030379
10.0000028524
10.0000026569
10.0000024532
10.0000022426
10.0000020267
10.0000018071
10.0000015858
10.0000013648
10.0000011468
10.000000935
10.0000007333
10.000000546
10.000000378
10.0000002342
10.0000001192
10.0000000365
9.99999998759
9.99999997213
9.99999998766
10.0000000302
10.0000000951
10.0000001777
10.0000002741
10.0000003808
10.0000004949
10.0000006137
10.000000735
10.0000008567
10.0000009775
10.000001096
10.0000012116
10.000001324
10.0000014329
10.0000015384
10.0000016405
10.0000017392
10.0000018345
10.0000019265
10.000002015
10.0000020999
10.0000021811
10.0000022583
10.0000023314
10.0000024002
10.0000024643
10.0000025235
10.0000025776
10.0000026265
10.0000026698
10.0000027075
10.0000027395
10.0000027659
10.0000027865
10.0000028016
10.0000028113
10.0000028158
10.0000028153
10.00000281
10.0000028004
10.0000027866
10.0000027691
10.0000027481
10.000002724
10.0000026971
10.0000026677
10.000002636
10.0000026024
10.0000025669
10.0000025299
10.0000024914
10.0000024514
10.0000024102
10.0000023666
10.0000023219
10.0000022717
10.0000022234
10.0000021583
10.0000021185
10.0000020195
10.0000020628
10.0000000093
10.0000001315
10.0000002457
10.0000003556
10.0000004662
10.0000005778
10.0000006905
10.0000008051
10.0000009221
10.0000010422
10.0000011657
10.0000012927
10.0000014232
10.000001557
10.0000016936
10.0000018324
10.000001973
10.0000021144
10.000002256
10.0000023969
10.0000025365
10.0000026735
10.0000028077
10.0000029374
10.0000030629
10.0000031819
10.0000032956
10.0000034004
10.0000034993
10.0000035865
10.000003668
10.0000037343
10.0000037958
10.0000038383
10.0000038771
10.0000038934
10.0000039067
10.0000038951
10.00000388
10.0000038397
10.0000037936
10.0000037244
10.0000036461
10.0000035483
10.0000034385
10.0000033128
10.0000031744
10.0000030229
10.0000028597
10.0000026857
10.000002502
10.0000023096
10.0000021097
10.0000019036
10.0000016928
10.0000014794
10.0000012658
10.0000010557
10.0000008531
10.0000006632
10.0000004916
10.0000003444
10.0000002267
10.000000143
10.0000000947
10.0000000818
10.0000001006
10.0000001466
10.0000002139
10.0000002974
10.0000003925
10.0000004954
10.0000006028
10.0000007116
10.0000008191
10.0000009229
10.000001021
10.0000011118
10.0000011946
10.0000012686
10.0000013339
10.0000013903
10.0000014384
10.0000014783
10.0000015109
10.0000015365
10.0000015562
10.0000015704
10.0000015802
10.0000015859
10.0000015886
10.0000015886
10.0000015865
10.0000015826
10.0000015774
10.0000015709
10.0000015636
10.0000015553
10.0000015463
10.0000015367
10.0000015264
10.0000015156
10.0000015043
10.0000014924
10.0000014802
10.0000014675
10.0000014546
10.0000014413
10.0000014278
10.000001414
10.0000014
10.0000013859
10.0000013715
10.000001357
10.0000013422
10.0000013271
10.0000013117
10.000001296
10.0000012795
10.0000012626
10.0000012436
10.0000012249
10.0000011998
10.0000011793
10.0000011391
10.0000011287
10.0000010548
10.0000011164
10.0000000106
10.000000136
10.0000002544
10.0000003673
10.0000004804
10.0000005938
10.0000007073
10.0000008215
10.000000937
10.0000010542
10.0000011735
10.000001295
10.0000014189
10.0000015449
10.0000016727
10.0000018018
10.000001932
10.0000020623
10.0000021926
10.0000023217
10.0000024496
10.0000025748
10.0000026978
10.0000028162
10.000002932
10.0000030404
10.0000031468
10.0000032421
10.0000033373
10.0000034159
10.0000034985
10.0000035568
10.0000036256
10.0000036601
10.0000037135
10.0000037215
10.0000037568
10.0000037376
10.0000037501
10.0000037053
10.0000036889
10.0000036214
10.0000035711
10.0000034827
10.0000033973
10.0000032876
10.0000031702
10.0000030376
10.0000028933
10.0000027375
10.0000025702
10.0000023927
10.0000022051
10.0000020087
10.0000018044
10.0000015941
10.0000013801
10.0000011663
10.0000009569
10.0000007581
10.0000005761
10.0000004184
10.0000002909
10.0000001989
10.0000001444
10.0000001269
10.0000001425
10.0000001859
10.0000002507
10.0000003314
10.0000004231
10.0000005219
10.0000006243
10.0000007274
10.000000828
10.000000924
10.0000010126
10.000001092
10.0000011615
10.0000012203
10.0000012685
10.0000013055
10.000001331
10.0000013453
10.000001349
10.0000013427
10.0000013274
10.0000013042
10.0000012742
10.0000012388
10.0000011989
10.0000011558
10.0000011105
10.0000010641
10.0000010172
10.0000009707
10.0000009251
10.0000008809
10.0000008385
10.0000007982
10.0000007602
10.0000007247
10.0000006917
10.0000006614
10.0000006337
10.0000006087
10.0000005862
10.0000005663
10.0000005487
10.0000005333
10.00000052
10.0000005086
10.0000004989
10.0000004907
10.0000004838
10.000000478
10.0000004728
10.0000004685
10.000000464
10.0000004602
10.0000004543
10.0000004501
10.0000004387
10.0000004341
10.0000004085
10.0000004132
10.0000003581
10.0000004195
10.0000000099
10.0000001377
10.0000002585
10.0000003749
10.0000004914
10.0000006075
10.0000007229
10.000000838
10.0000009533
10.0000010693
10.0000011864
10.0000013048
10.0000014246
10.0000015456
10.0000016677
10.0000017904
10.0000019135
10.0000020363
10.0000021588
10.0000022795
10.0000023996
10.0000025161
10.000002632
10.0000027416
10.000002852
10.0000029516
10.0000030556
10.0000031413
10.0000032391
10.000003306
10.0000033991
10.0000034411
10.0000035317
10.0000035423
10.0000036326
10.0000036065
10.0000036956
10.0000036321
10.000003713
10.0000036187
10.0000036768
10.000003565
10.0000035822
10.0000034664
10.0000034308
10.0000033153
10.0000032285
10.0000031056
10.0000029794
10.0000028376
10.0000026827
10.0000025157
10.0000023355
10.0000021434
10.0000019397
10.0000017262
10.0000015047
10.0000012797
10.000001056
10.0000008411
10.0000006425
10.0000004696
10.0000003298
10.0000002298
10.0000001715
10.0000001542
10.0000001724
10.0000002194
10.0000002874
10.0000003699
10.0000004619
10.0000005588
10.0000006584
10.0000007558
10.0000008483
10.0000009338
10.0000010107
10.0000010777
10.0000011345
10.0000011803
10.0000012154
10.0000012395
10.0000012526
10.0000012547
10.0000012463
10.0000012277
10.0000011985
10.0000011597
10.0000011126
10.0000010584
10.0000009989
10.0000009351
10.0000008686
10.0000008004
10.0000007319
10.000000664
10.0000005975
10.0000005332
10.0000004717
10.0000004134
10.0000003589
10.0000003082
10.0000002617
10.0000002194
10.0000001814
10.0000001477
10.0000001181
10.0000000925
10.0000000708
10.0000000528
10.0000000381
10.0000000266
10.0000000178
10.0000000115
10.0000000073
10.0000000051
10.0000000041
10.0000000045
10.000000005
10.0000000069
10.0000000065
10.0000000086
10.000000003
10.000000005
9.99999998622
9.99999999503
9.99999995226
10.0000000014
10.000000011
10.0000001414
10.0000002655
10.0000003842
10.0000005029
10.0000006208
10.0000007377
10.0000008538
10.0000009694
10.0000010851
10.0000012011
10.0000013177
10.0000014349
10.0000015527
10.0000016711
10.0000017894
10.0000019078
10.0000020252
10.0000021425
10.0000022573
10.0000023723
10.0000024822
10.0000025941
10.0000026964
10.0000028051
10.000002896
10.000003003
10.0000030765
10.0000031855
10.0000032331
10.0000033514
10.0000033604
10.0000034991
10.0000034535
10.000003626
10.0000035093
10.0000037255
10.000003529
10.0000037854
10.0000035192
10.000003788
10.000003489
10.0000037177
10.0000034398
10.0000035727
10.000003357
10.0000033697
10.0000032132
10.000003128
10.0000029914
10.0000028505
10.0000026958
10.0000025223
10.0000023354
10.0000021316
10.0000019135
10.0000016827
10.0000014443
10.0000012031
10.0000009677
10.0000007479
10.0000005546
10.0000003976
10.0000002844
10.0000002179
10.0000001959
10.0000002123
10.0000002585
10.0000003261
10.0000004074
10.0000004971
10.0000005905
10.0000006828
10.0000007711
10.0000008531
10.0000009269
10.0000009914
10.000001046
10.0000010906
10.0000011253
10.00000115
10.0000011649
10.0000011699
10.000001165
10.0000011502
10.0000011263
10.0000010933
10.0000010524
10.0000010034
10.0000009467
10.0000008837
10.000000816
10.0000007449
10.0000006718
10.000000598
10.0000005246
10.0000004526
10.000000383
10.0000003163
10.0000002533
10.0000001943
10.0000001398
10.00000009
10.000000045
10.0000000049
9.99999996966
9.99999993917
9.99999991332
9.99999989183
9.9999998745
9.99999986093
9.99999985091
9.99999984389
9.99999983974
9.99999983768
9.99999983785
9.99999983901
9.99999984195
9.99999984435
9.99999984858
9.99999984964
9.99999985376
9.99999984929
9.99999985245
9.99999983547
9.99999984187
9.99999980603
9.99999983744
10.0000000106
10.0000001431
10.0000002694
10.000000391
10.0000005123
10.0000006327
10.0000007516
10.0000008692
10.0000009858
10.0000011018
10.0000012177
10.0000013335
10.0000014496
10.0000015656
10.0000016818
10.0000017973
10.000001913
10.0000020268
10.0000021412
10.0000022516
10.0000023642
10.000002469
10.00000258
10.0000026758
10.000002787
10.0000028684
10.0000029843
10.0000030421
10.0000031724
10.0000031907
10.0000033529
10.0000033062
10.0000035293
10.00000338
10.000003704
10.0000034046
10.0000038746
10.0000033808
10.0000040251
10.0000033248
10.00000412
10.0000032709
10.0000041106
10.0000032546
10.0000039624
10.0000032751
10.0000036935
10.0000032728
10.0000033773
10.0000031645
10.0000030688
10.000002919
10.0000027455
10.0000025648
10.0000023532
10.0000021246
10.0000018763
10.0000016128
10.0000013429
10.0000010774
10.0000008271
10.0000006067
10.0000004292
10.0000003059
10.0000002381
10.0000002223
10.0000002479
10.0000003051
10.0000003831
10.0000004738
10.0000005704
10.0000006659
10.0000007564
10.000000839
10.0000009115
10.0000009723
10.0000010213
10.0000010587
10.0000010858
10.0000011033
10.0000011124
10.0000011131
10.0000011058
10.0000010905
10.0000010673
10.0000010365
10.0000009985
10.000000954
10.0000009037
10.0000008486
10.0000007889
10.0000007247
10.0000006576
10.0000005887
10.0000005195
10.0000004508
10.0000003838
10.0000003194
10.0000002581
10.0000002007
10.0000001475
10.0000000989
10.0000000552
10.0000000164
9.99999998266
9.99999995378
9.99999992968
9.99999991015
9.9999998949
9.99999988366
9.99999987599
9.99999987162
9.99999986991
9.99999987077
9.9999998732
9.99999987755
9.99999988214
9.99999988827
9.99999989282
9.99999989914
9.99999990092
9.99999990594
9.99999990091
9.99999990334
9.99999988563
9.99999988737
9.99999985409
9.99999986829
10.0000000114
10.0000001463
10.0000002752
10.0000003988
10.000000522
10.0000006441
10.0000007647
10.0000008836
10.0000010013
10.0000011181
10.0000012343
10.00000135
10.0000014657
10.0000015808
10.0000016959
10.0000018097
10.0000019239
10.0000020353
10.0000021482
10.0000022555
10.0000023671
10.000002468
10.0000025798
10.0000026701
10.0000027857
10.0000028582
10.0000029856
10.0000030267
10.0000031827
10.0000031674
10.0000033834
10.0000032677
10.0000035989
10.0000033099
10.0000038442
10.0000032736
10.0000041322
10.0000031449
10.0000044587
10.0000029367
10.0000047776
10.0000027139
10.0000049825
10.0000025942
10.0000049299
10.0000026868
10.0000045524
10.0000029627
10.0000039689
10.0000032017
10.0000034237
10.0000031712
10.0000030205
10.0000028628
10.0000026264
10.0000023994
10.0000021265
10.0000018329
10.00000153
10.0000012288
10.0000009364
10.0000006767
10.0000004762
10.0000003434
10.0000002681
10.0000002386
10.0000002477
10.0000002947
10.0000003735
10.0000004776
10.0000005908
10.0000007018
10.000000803
10.0000008894
10.0000009587
10.0000010106
10.0000010462
10.0000010679
10.0000010782
10.0000010794
10.000001073
10.00000106
10.0000010408
10.0000010156
10.0000009843
10.0000009474
10.0000009051
10.0000008582
10.0000008072
10.0000007533
10.0000006968
10.0000006394
10.00000058
10.0000005197
10.0000004596
10.0000004009
10.0000003443
10.0000002906
10.0000002405
10.0000001946
10.0000001531
10.0000001164
10.0000000845
10.0000000577
10.0000000358
10.0000000187
10.0000000061
9.99999999782
9.99999999346
9.99999999272
9.99999999498
10
10.000000007
10.000000016
10.0000000256
10.0000000365
10.0000000465
10.0000000575
10.0000000655
10.0000000749
10.0000000779
10.0000000842
10.0000000785
10.0000000801
10.0000000605
10.0000000578
10.0000000237
10.0000000238
10.0000000113
10.0000001482
10.0000002794
10.0000004052
10.0000005304
10.0000006545
10.0000007768
10.0000008974
10.0000010164
10.0000011342
10.0000012513
10.0000013675
10.0000014835
10.0000015984
10.0000017134
10.0000018265
10.0000019403
10.0000020505
10.0000021629
10.0000022687
10.0000023804
10.0000024792
10.0000025922
10.0000026798
10.000002799
10.000002867
10.0000030028
10.0000030349
10.0000032088
10.0000031736
10.0000034282
10.0000032654
10.0000036809
10.0000032811
10.0000040002
10.0000031767
10.0000044312
10.0000028985
10.0000050165
10.0000024108
10.0000057527
10.0000017561
10.0000065087
10.0000011388
10.0000069735
10.000000923
10.0000067566
10.0000014044
10.0000057372
10.0000023997
10.0000043862
10.0000031786
10.0000034149
10.0000032039
10.00000289
10.0000027218
10.0000023577
10.0000020406
10.0000017094
10.0000013295
10.0000009438
10.0000006645
10.0000005124
10.0000003674
10.0000001152
9.99999977356
9.9999994686
9.99999933048
9.99999940921
9.99999966253
9.99999999966
10.0000003372
10.0000006229
10.0000008372
10.0000009822
10.00000107
10.0000011148
10.000001129
10.0000011234
10.000001105
10.000001079
10.0000010481
10.0000010137
10.0000009758
10.0000009345
10.0000008894
10.0000008406
10.0000007884
10.0000007338
10.0000006774
10.0000006204
10.0000005637
10.0000005083
10.0000004542
10.0000004018
10.000000352
10.0000003056
10.0000002633
10.0000002255
10.0000001927
10.0000001651
10.0000001427
10.0000001256
10.0000001138
10.000000107
10.000000105
10.0000001073
10.0000001137
10.0000001236
10.0000001365
10.0000001518
10.0000001692
10.0000001877
10.0000002072
10.0000002265
10.0000002459
10.0000002634
10.0000002808
10.0000002938
10.0000003073
10.0000003128
10.0000003207
10.0000003149
10.0000003155
10.0000002937
10.0000002864
10.000000249
10.000000237
10.0000000118
10.0000001509
10.0000002841
10.0000004116
10.0000005384
10.0000006639
10.0000007878
10.0000009098
10.0000010302
10.0000011492
10.0000012674
10.0000013844
10.000001501
10.0000016163
10.0000017316
10.0000018447
10.0000019585
10.0000020685
10.0000021809
10.0000022865
10.000002398
10.0000024971
10.0000026099
10.0000026989
10.0000028173
10.000002889
10.0000030228
10.0000030627
10.000003232
10.0000032105
10.0000034571
10.0000033139
10.0000037225
10.000003337
10.0000040751
10.0000032145
10.000004596
10.0000028395
10.0000054065
10.0000020693
10.0000066376
10.0000007922
10.0000083075
9.99999910754
10.0000101026
9.99999756882
10.0000111833
9.99999720347
10.0000104738
9.99999879508
10.0000077821
10.0000015806
10.0000047409
10.0000033257
10.000003202
10.0000032073
10.0000025096
10.0000024529
10.000001962
10.0000012426
10.0000008967
10.0000011842
10.0000011103
9.99999926282
9.99999537383
9.99999063521
9.99998682997
9.99998520302
9.9999859616
9.9999884267
9.99999160414
9.99999465156
9.99999709927
9.99999882609
9.99999992402
10.000000561
10.000000897
10.0000010506
10.0000010988
10.0000010873
10.0000010426
10.0000009805
10.0000009112
10.000000841
10.0000007737
10.0000007112
10.0000006535
10.0000006003
10.0000005503
10.0000005029
10.0000004575
10.000000414
10.0000003725
10.0000003336
10.0000002972
10.0000002637
10.0000002339
10.0000002084
10.0000001879
10.0000001726
10.0000001627
10.0000001583
10.0000001593
10.0000001654
10.0000001765
10.0000001919
10.0000002114
10.0000002342
10.0000002601
10.0000002881
10.000000318
10.0000003486
10.0000003799
10.0000004105
10.0000004406
10.0000004686
10.0000004948
10.0000005178
10.0000005372
10.0000005529
10.0000005624
10.0000005686
10.000000564
10.0000005581
10.0000005348
10.0000005146
10.0000004724
10.0000004373
10.000000012
10.000000153
10.0000002884
10.0000004176
10.0000005458
10.0000006726
10.0000007979
10.0000009213
10.0000010431
10.0000011634
10.0000012828
10.0000014009
10.0000015185
10.0000016347
10.0000017507
10.0000018646
10.0000019789
10.0000020898
10.0000022023
10.0000023094
10.0000024205
10.0000025224
10.0000026334
10.0000027283
10.0000028419
10.0000029257
10.0000030475
10.0000031122
10.0000032541
10.0000032821
10.0000034702
10.0000034232
10.0000037149
10.0000035069
10.0000040299
10.0000034706
10.0000045035
10.0000031852
10.000005309
10.0000024113
10.000006738
10.0000007878
10.0000091641
9.99999796095
10.0000127799
9.99999403018
10.0000169562
9.99999031115
10.0000195463
9.99998959693
10.0000175357
9.99999408483
10.0000106348
10.0000009489
10.000004442
10.0000035977
10.0000025512
10.0000036155
10.0000009921
10.0000003917
10.0000036379
10.0000055058
9.99999391424
9.99996184575
9.99991534357
9.99986955316
9.99983941998
9.99983239498
9.99984682081
9.99987495609
9.99990762213
9.99993765835
9.99996131654
9.99997786492
9.99998837349
9.99999453209
9.99999791407
9.99999968433
10.0000005888
10.0000010506
10.0000012856
10.0000013917
10.0000014116
10.0000013657
10.0000012708
10.0000011429
10.0000009987
10.000000852
10.0000007139
10.000000591
10.0000004866
10.0000004012
10.0000003335
10.0000002814
10.0000002425
10.0000002142
10.0000001946
10.0000001826
10.0000001774
10.0000001781
10.0000001847
10.0000001964
10.0000002133
10.0000002348
10.000000261
10.0000002909
10.0000003248
10.0000003611
10.0000004007
10.000000441
10.000000484
10.0000005251
10.0000005688
10.0000006075
10.0000006491
10.0000006816
10.0000007182
10.0000007404
10.000000769
10.0000007761
10.0000007931
10.0000007795
10.00000078
10.0000007385
10.0000007167
10.0000006383
10.0000005915
10.0000004658
10.0000000123
10.0000001553
10.0000002921
10.0000004227
10.0000005521
10.0000006801
10.0000008065
10.0000009312
10.0000010544
10.0000011761
10.0000012967
10.000001416
10.0000015346
10.000001652
10.0000017689
10.000001884
10.0000019989
10.0000021113
10.000002224
10.0000023333
10.0000024438
10.0000025498
10.0000026585
10.0000027609
10.0000028683
10.0000029668
10.000003074
10.0000031679
10.0000032767
10.0000033639
10.0000034788
10.0000035527
10.0000036869
10.0000037254
10.0000039184
10.0000038526
10.0000042227
10.0000038511
10.0000047302
10.0000035095
10.0000057463
10.000002367
10.0000078965
9.99999958923
10.0000121719
9.99999409898
10.0000194706
9.99998553402
10.0000289877
9.99997650999
10.0000355864
9.9999746663
10.000030108
9.99998716601
10.000012502
10.000001636
10.0000045547
10.0000032218
9.99999393974
10.000012105
10.0000279588
9.9999716241
9.99977008159
9.99942741728