/*--------------------------------*- C++ -*----------------------------------*\
  =========                 |
  \\      /  F ield         | OpenFOAM: The Open Source CFD Toolbox
   \\    /   O peration     | Website:  https://openfoam.org
    \\  /    A nd           | Version:  7
     \\/     M anipulation  |
\*---------------------------------------------------------------------------*/
FoamFile
{
    version     2.0;
    format      ascii;
    class       volScalarField;
    location    "2460";
    object      p;
}
// * * * * * * * * * * * * * * * * * * * * * * * * * * * * * * * * * * * * * //

dimensions      [0 2 -2 0 0 0 0];

internalField   nonuniform List<scalar> 
8192
(
0.000580997905848
0.000409448015874
0.000323831947246
0.000279718632292
0.000254694331308
0.000239458051668
0.000229591472304
0.000222849797424
0.000218025996122
0.000214435971239
0.000211672338346
0.000209481181788
0.000207697636531
0.000206210760733
0.000204943573281
0.000203841251026
0.000202863885155
0.000201981879421
0.000201172933003
0.000200420005079
0.000199709905852
0.000199032298321
0.000198378975827
0.000197743328755
0.00019711994321
0.000196504293095
0.000195892498812
0.000195281133656
0.00019466706388
0.000194047312299
0.000193418938025
0.000192778925843
0.000192124079771
0.000191450916692
0.000190755556356
0.000190033604824
0.000189280028675
0.00018848901827
0.000187653838927
0.000186766670436
0.000185818436744
0.000184798630463
0.000183695139676
0.000182494089174
0.000181179712904
0.00017973428076
0.000178138108394
0.000176369684623
0.00017440595363
0.000172222789005
0.000169795689419
0.000167100712309
0.000164115639283
0.000160821339022
0.000157203260068
0.000153252954093
0.000148969500395
0.000144360681249
0.000139443745553
0.000134245606439
0.000128802354791
0.000123158049756
0.000117362862311
0.000111470776496
0.000105537144207
9.96164063114e-05
9.37602256321e-05
8.80161437338e-05
8.24267421452e-05
7.70292108032e-05
7.18551829974e-05
6.69307059179e-05
6.22762543798e-05
5.79067488694e-05
5.3831586203e-05
5.00547253324e-05
4.65748817754e-05
4.33858766944e-05
4.04771609825e-05
3.78345035263e-05
3.5440801298e-05
3.32769492975e-05
3.13227008072e-05
2.95574563324e-05
2.79609352225e-05
2.65137052962e-05
2.51975644621e-05
2.39957843403e-05
2.28932348846e-05
2.18764142578e-05
2.09334079921e-05
2.0053799935e-05
1.92285532732e-05
1.84498765182e-05
1.77110849343e-05
1.70064651366e-05
1.63311473758e-05
1.56809885085e-05
1.50524666627e-05
1.44425880827e-05
1.38488054875e-05
1.32689473467e-05
1.27011568075e-05
1.2143839367e-05
1.15956179513e-05
1.10552945408e-05
1.05218171481e-05
9.99425146793e-06
9.47175622465e-06
8.95356176527e-06
8.43895118242e-06
7.92724380092e-06
7.417780672e-06
6.90991237606e-06
6.40298945292e-06
5.89635677616e-06
5.3893538035e-06
4.88132466233e-06
4.37164448071e-06
3.85977374909e-06
3.34536127827e-06
2.82843411356e-06
2.30974701104e-06
1.79143681438e-06
1.27829015799e-06
7.80339296168e-07
3.19242605879e-07
3.03697723808e-09
0.000432084350408
0.000368570324052
0.000318881502722
0.000286230634597
0.000264309543123
0.000249127749185
0.000238306572162
0.000230381221075
0.000224426554206
0.000219844283494
0.000216238419623
0.000213340830257
0.000210965923566
0.000208982545694
0.000207296212754
0.000205837650038
0.00020455524846
0.000203409998829
0.000202372023039
0.000201418153819
0.000200530215651
0.000199693782825
0.00019889726754
0.00019813123978
0.000197387912098
0.000196660743089
0.000195944126922
0.000195233145676
0.00019452336705
0.000193810674895
0.000193091123648
0.000192360808786
0.000191615747032
0.000190851761765
0.000190064369741
0.000189248666116
0.000188399205311
0.000187509876224
0.000186573771009
0.000185583048099
0.000184528791457
0.000183400870439
0.000182187807035
0.000180876660971
0.00017945294684
0.000177900602279
0.000176202030387
0.000174338243841
0.000172289139801
0.000170033934014
0.000167551776209
0.000164822557538
0.000161827902242
0.000158552312803
0.000154984411076
0.000151118192584
0.000146954188455
0.00014250041379
0.000137772972843
0.000132796197666
0.000127602224683
0.000122229975519
0.000116723601504
0.000111130557921
0.000105499551771
9.98786202167e-05
9.43135461951e-05
8.88466999016e-05
8.35162871201e-05
7.83559309188e-05
7.33944749847e-05
6.86559060297e-05
6.41593236042e-05
5.99189273942e-05
5.59440289958e-05
5.22391213597e-05
4.88040474277e-05
4.56343029493e-05
4.27214879506e-05
4.00538960295e-05
3.76172055577e-05
3.53952211161e-05
3.3370607919e-05
3.15255685484e-05
2.98424242815e-05
2.83040804122e-05
2.68943700982e-05
2.5598283999e-05
2.44021003705e-05
2.32934345402e-05
2.22612268437e-05
2.12956870425e-05
2.0388210194e-05
1.95312763231e-05
1.87183429123e-05
1.79437369977e-05
1.72025511567e-05
1.64905463369e-05
1.58040628879e-05
1.51399405767e-05
1.44954474426e-05
1.38682172503e-05
1.32561947659e-05
1.26575882493e-05
1.20708282269e-05
1.14945318994e-05
1.0927472311e-05
1.03685517441e-05
9.81677863029e-06
9.27124762631e-06
8.73112237617e-06
8.1956208796e-06
7.66400333447e-06
7.13556283169e-06
6.60961941e-06
6.08551877174e-06
5.56263754479e-06
5.04039848614e-06
4.51830076274e-06
3.99597381963e-06
3.47326814409e-06
2.95040470057e-06
2.42821829135e-06
1.9085542254e-06
1.39491967229e-06
8.93599615027e-07
4.15132855966e-07
4.52662502922e-08
0.000349137013405
0.000326469110289
0.000300477490923
0.000279241614684
0.000263123280169
0.00025081333729
0.000241292358124
0.000233832785841
0.000227912685469
0.000223152937039
0.000219275319079
0.000216073857345
0.000213394778929
0.000211122299267
0.00020916847058
0.000207465892073
0.000205962446224
0.000204617473704
0.000203398973022
0.00020228153336
0.000201244794863
0.000200272290957
0.000199350569231
0.000198468517016
0.000197616838299
0.000196787643313
0.000195974122275
0.000195170282409
0.000194370731573
0.000193570496853
0.000192764869816
0.000191949270353
0.000191119122956
0.000190269741182
0.000189396216512
0.000188493308802
0.000187555336
0.000186576061802
0.00018554858052
0.000184465199762
0.000183317322548
0.000182095332575
0.000180788488163
0.000179384833544
0.000177871139052
0.000176232885886
0.000174454314512
0.000172518559654
0.000170407896311
0.00016810412131
0.000165589089754
0.000162845416614
0.000159857337607
0.000156611703743
0.000153099060242
0.000149314738984
0.000145259874194
0.000140942238237
0.000136376785225
0.000131585791317
0.000126598497655
0.000121450212479
0.000116180914877
0.000110833510528
0.000105451972214
0.00010007961147
9.47576816906e-05
8.95243820272e-05
8.44142250603e-05
7.94576963443e-05
7.46810965835e-05
7.01064729814e-05
6.57515780227e-05
6.1629833993e-05
5.77503148707e-05
5.4117780352e-05
5.07328026541e-05
4.75920196939e-05
4.46885279178e-05
4.20124040142e-05
3.95513208672e-05
3.72912090586e-05
3.52169108313e-05
3.33127808674e-05
3.15632008762e-05
2.99529911575e-05
2.8467715659e-05
2.70938881082e-05
2.58190925607e-05
2.46320350386e-05
2.35225424977e-05
2.24815243648e-05
2.15009090392e-05
2.05735656766e-05
1.96932186723e-05
1.88543605975e-05
1.8052167174e-05
1.72824169406e-05
1.65414168342e-05
1.5825934571e-05
1.5133137807e-05
1.44605400958e-05
1.38059530739e-05
1.31674445484e-05
1.25433017477e-05
1.19319993411e-05
1.13321715098e-05
1.07425877408e-05
1.01621317415e-05
9.58978328744e-06
9.02460258021e-06
8.46571713959e-06
7.9123110776e-06
7.36361711781e-06
6.81891165917e-06
6.27751385477e-06
5.73878984076e-06
5.20216424687e-06
4.66714175381e-06
4.13334313157e-06
3.60056181906e-06
3.06885029275e-06
2.53864955135e-06
2.01098178709e-06
1.48773297108e-06
9.71994700075e-07
4.67822418875e-07
5.68785027576e-08
0.000304587847549
0.000296197255489
0.000282002556446
0.000268208213764
0.000256777877297
0.000247500855461
0.00023992458947
0.000233680998865
0.000228492062696
0.000224145277021
0.000220474891066
0.000217349810046
0.000214665530729
0.000212338375502
0.000210301135368
0.000208499674733
0.000206890250403
0.000205437385712
0.00020411218374
0.00020289098902
0.00020175432515
0.000200686050099
0.000199672682703
0.000198702863501
0.000197766920781
0.00019685651897
0.000195964371287
0.000195084002937
0.000194209551915
0.000193335599746
0.000192457026174
0.000191568880577
0.000190666265166
0.000189744226589
0.000188797652727
0.000187821172221
0.000186809054715
0.000185755110543
0.000184652589125
0.000183494076332
0.000182271391992
0.00018097549025
0.000179596367169
0.000178122982422
0.000176543204629
0.00017484379347
0.000173010435252
0.000171027852417
0.000168880010049
0.000166550443263
0.000164022726224
0.000161281095685
0.000158311227614
0.000155101146315
0.000151642222713
0.00014793019734
0.000143966145816
0.000139757292135
0.000135317564259
0.000130667779404
0.000125835352001
0.000120853458235
0.000115759681654
0.00011059429082
0.000105398405034
0.000100212318848
9.50742080305e-05
9.00192666342e-05
8.50792051782e-05
8.02820242735e-05
7.56519389863e-05
7.1209355502e-05
6.69708413397e-05
6.29490740963e-05
5.91527894868e-05
5.55867715594e-05
5.2251932968e-05
4.91455234996e-05
4.62614827303e-05
4.35909253506e-05
4.11227222908e-05
3.88441257792e-05
3.67413837078e-05
3.48002977509e-05
3.30066946286e-05
3.13467966765e-05
2.98074915204e-05
2.83765104854e-05
2.70425302572e-05
2.57952141763e-05
2.46252085693e-05
2.35241077465e-05
2.24843985737e-05
2.14993932516e-05
2.05631565162e-05
1.96704318297e-05
1.88165694857e-05
1.79974586337e-05
1.72094642341e-05
1.64493695525e-05
1.57143242324e-05
1.500179789e-05
1.43095388478e-05
1.363553769e-05
1.2977995127e-05
1.23352937987e-05
1.1705973518e-05
1.10887096314e-05
1.04822940827e-05
9.88561895541e-06
9.29766220478e-06
8.71747549902e-06
8.14417404906e-06
7.57692855099e-06
7.01495937331e-06
6.45753343014e-06
5.90396428717e-06
5.35361649341e-06
4.80591545407e-06
4.26036495469e-06
3.71657536343e-06
3.17430731367e-06
2.63353783519e-06
2.09455710631e-06
1.55808862203e-06
1.02531074225e-06
4.97108000134e-07
5.87863191031e-08
0.000276975292903
0.00027500062998
0.000267195384561
0.000257997294533
0.000249711474738
0.000242675394573
0.00023673215643
0.000231676497349
0.000227340104058
0.000223593302619
0.000220334814871
0.000217483375874
0.000214972345778
0.000212746337525
0.000210758987006
0.000208971349077
0.000207350653227
0.000205869289107
0.000204503958088
0.000203234956603
0.000202045569637
0.000200921558067
0.000199850726144
0.000198822557024
0.000197827905587
0.000196858739048
0.000195907917081
0.00019496900512
0.000194036111631
0.000193103746942
0.000192166700242
0.000191219928608
0.000190258455002
0.000189277272934
0.000188271255366
0.000187235065886
0.000186163070499
0.000185049248851
0.00018388710412
0.000182669571486
0.000181388925821
0.000180036690442
0.000178603550154
0.000177079273967
0.000175452655364
0.000173711481484
0.000171842546342
0.000169831727651
0.000167664150431
0.000165324462981
0.000162797249395
0.000160067596386
0.000157121818593
0.000153948326704
0.000150538598852
0.000146888193408
0.000142997724113
0.000138873706853
0.000134529174541
0.000129983939616
0.000125264373012
0.000120402597751
0.000115435096233
0.000110400893203
0.000105339622136
0.000100289802426
9.52875944069e-05
9.03660572408e-05
8.55547890036e-05
8.08798385907e-05
7.63637373152e-05
7.20255397375e-05
6.78808143198e-05
6.39415764697e-05
6.02161970772e-05
5.67093425673e-05
5.34220061983e-05
5.0351677607e-05
4.74926707972e-05
4.48365978102e-05
4.23729454992e-05
4.00896960134e-05
3.79739304205e-05
3.60123672514e-05
3.41918063566e-05
3.24994674914e-05
3.09232275713e-05
2.94517697557e-05
2.80746613336e-05
2.67823778358e-05
2.55662888425e-05
2.44186183531e-05
2.33323895807e-05
2.23013615586e-05
2.13199626765e-05
2.03832247019e-05
1.94867194674e-05
1.86264996074e-05
1.77990439811e-05
1.70012080838e-05
1.62301793667e-05
1.54834372995e-05
1.47587178119e-05
1.40539817898e-05
1.33673871921e-05
1.26972644485e-05
1.20420947299e-05
1.14004908001e-05
1.07711801048e-05
1.01529898821e-05
9.54483403167e-06
8.94570161723e-06
8.35464683937e-06
7.77078046257e-06
7.19326266895e-06
6.62129749135e-06
6.05412902904e-06
5.49103993661e-06
4.93135291135e-06
4.37443649596e-06
3.8197171902e-06
3.26670084785e-06
2.71500623855e-06
2.16440781126e-06
1.61485278878e-06
1.06629257349e-06
5.17837121772e-07
5.91493418614e-08
0.000258634966407
0.000259521498039
0.000255471038709
0.00024932981983
0.000243229677818
0.000237792372732
0.000233068337739
0.000228962553451
0.000225368304413
0.000222196997997
0.000219379180603
0.000216859981286
0.000214594913167
0.000212546974281
0.000210684797582
0.00020898146896
0.000207413733355
0.000205961419536
0.000204606990217
0.000203335168989
0.000202132619597
0.000200987665165
0.000199890040611
0.000198830673985
0.000197801493401
0.000196795256668
0.000195805400727
0.000194825909693
0.000193851193849
0.000192875982208
0.000191895227221
0.000190904015866
0.00018989748626
0.00018887074834
0.000187818806929
0.000186736485733
0.00018561835093
0.000184458633301
0.000183251148067
0.000181989212029
0.00018066555816
0.00017927224867
0.00017780058873
0.000176241044937
0.00017458317495
0.000172815578236
0.000170925882026
0.000168900781755
0.000166726160372
0.000164387315051
0.000161869320638
0.000159157554179
0.000156238391629
0.000153100066184
0.000149733650775
0.000146134102287
0.000142301288152
0.000138240906759
0.000133965199764
0.000129493325278
0.000124851226151
0.000120070836864
0.000115188587275
0.00011024338251
0.000105274452374
0.000100319494215
9.54134436506e-05
9.0587860727e-05
8.5870735904e-05
8.12865678967e-05
7.68565249755e-05
7.25985625988e-05
6.85274361563e-05
6.46546113276e-05
6.09881220385e-05
5.75324498743e-05
5.42885008842e-05
5.12537390854e-05
4.84225028067e-05
4.57864885557e-05
4.33353503159e-05
4.1057342593e-05
3.8939936664e-05
3.69703569601e-05
3.51360085389e-05
3.34247891697e-05
3.18252954182e-05
3.03269407903e-05
2.89200064191e-05
2.75956435933e-05
2.63458441668e-05
2.51633913486e-05
2.40417998943e-05
2.2975252027e-05
2.19585331789e-05
2.0986970176e-05
2.00563733016e-05
1.91629830205e-05
1.83034215772e-05
1.74746494555e-05
1.66739264269e-05
1.58987768912e-05
1.51469590911e-05
1.44164378433e-05
1.37053603664e-05
1.30120348763e-05
1.23349115785e-05
1.16725657841e-05
1.10236828433e-05
1.0387044681e-05
9.76151769226e-06
9.14604184074e-06
8.53962077961e-06
7.94131290558e-06
7.35022324944e-06
6.76549622473e-06
6.18630930528e-06
5.61186790781e-06
5.0414019372e-06
4.47416480552e-06
3.90943593824e-06
3.34652747509e-06
2.78479293828e-06
2.22362422699e-06
1.66238621388e-06
1.10014172626e-06
5.34869676568e-07
5.98430759321e-08
0.000245762368654
0.000247875730231
0.000246068341729
0.000242042429623
0.000237548125101
0.000233302195449
0.000229493960614
0.000226117811215
0.000223116395583
0.000220429304516
0.000218005541446
0.000215804331782
0.000213793072873
0.000211945165633
0.00021023836909
0.000208653678886
0.000207174588139
0.000205786595793
0.000204476865988
0.000203233977203
0.000202047724865
0.000200908956881
0.000199809430823
0.000198741686701
0.000197698931969
0.000196674936823
0.000195663938364
0.000194660554291
0.000193659698884
0.000192656506364
0.000191646262263
0.000190624336108
0.000189586116681
0.000188526948821
0.000187442070656
0.000186326550176
0.000185175220078
0.000183982609889
0.000182742874442
0.000181449718035
0.000180096313896
0.00017867521921
0.000177178286936
0.000175596577161
0.000173920273128
0.000172138610447
0.000170239832732
0.000168211192913
0.000166039026319
0.000163708928031
0.000161206070443
0.000158515693964
0.000155623790616
0.000152517975847
0.000149188511812
0.000145629415808
0.000141839570939
0.000137823752464
0.000133593473176
0.000129167507942
0.000124571885996
0.00011983911221
0.000115006506261
0.000110113858803
0.000105200930196
0.000100305370577
9.54614898384e-05
9.06998028447e-05
8.60470428582e-05
8.15264420348e-05
7.71580477792e-05
7.29589282896e-05
6.89432039859e-05
6.51219216248e-05
6.15028441103e-05
5.80902530835e-05
5.48848609418e-05
5.18839079176e-05
4.90814782068e-05
4.64690155964e-05
4.40359720912e-05
4.17704996901e-05
3.96601003438e-05
3.76921742318e-05
3.58544382471e-05
3.41352138803e-05
3.25236012185e-05
3.10095635047e-05
2.95839472937e-05
2.8238459897e-05
2.6965621017e-05
2.57587007556e-05
2.46116522321e-05
2.35190440434e-05
2.24759956644e-05
2.14781174491e-05
2.05214559603e-05
1.96024447824e-05
1.87178606365e-05
1.78647844364e-05
1.70405668373e-05
1.62427978073e-05
1.54692797563e-05
1.47180037872e-05
1.39871286671e-05
1.3274962157e-05
1.25799443724e-05
1.19006328866e-05
1.12356893151e-05
1.0583867152e-05
9.94400064965e-06
9.31499455954e-06
8.69581457268e-06
8.08547832497e-06
7.48304686374e-06
6.88761652051e-06
6.2983111949e-06
5.7142751418e-06
5.13466642799e-06
4.55865121204e-06
3.98539859371e-06
3.41407418184e-06
2.84382558206e-06
2.27373952706e-06
1.70271800741e-06
1.12916100081e-06
5.50303048444e-07
6.17960536986e-08
0.000236312246051
0.000238889399743
0.000238430246628
0.000235886877094
0.000232608558236
0.000229290061495
0.000226196727947
0.000223390834937
0.000220858060146
0.000218562854984
0.000216468869103
0.000214544864106
0.000212765350128
0.000211109661467
0.00020956081555
0.000208104559852
0.000206728670894
0.000205422464948
0.000204176461585
0.000202982149722
0.000201831819637
0.000200718436513
0.000199635539971
0.000198577160067
0.000197537743992
0.000196512090105
0.000195495287508
0.000194482660363
0.000193469711711
0.000192452070292
0.000191425443231
0.000190385566858
0.000189328158005
0.000188248864976
0.000187143217369
0.000186006573887
0.000184834067183
0.000183620544761
0.000182360504876
0.000181048026458
0.000179676692164
0.000178239504075
0.000176728792211
0.000175136117348
0.00017345217175
0.000171666684877
0.000169768346204
0.000167744764385
0.00016558249071
0.000163267144141
0.000160783681979
0.000158116860107
0.000155251913831
0.000152175462047
0.000148876597438
0.00014534808833
0.000141587601199
0.000137598860166
0.000133392660629
0.000128987596764
0.000124410235543
0.000119694375384
0.000114879159135
0.00011000625546
0.000105116835386
0.000100249168554
9.54373959994e-05
9.07112954882e-05
8.60965652788e-05
8.1615354571e-05
7.7286765098e-05
7.31271556808e-05
6.91501841331e-05
6.53666243846e-05
6.17840635076e-05
5.84066049269e-05
5.52346999962e-05
5.2265204986e-05
4.94917080843e-05
4.69051004911e-05
4.44943039673e-05
4.22470391765e-05
4.0150529989e-05
3.81920754896e-05
3.63594636716e-05
3.46412343157e-05
3.30268175152e-05
3.1506580551e-05
3.00718135976e-05
2.87146788009e-05
2.7428140427e-05
2.6205887914e-05
2.50422590436e-05
2.39321673254e-05
2.28710355469e-05
2.18547362144e-05
2.08795388211e-05
1.99420635355e-05
1.90392406791e-05
1.81682753495e-05
1.73266165145e-05
1.65119299928e-05
1.5722074753e-05
1.49550820689e-05
1.42091370888e-05
1.34825624702e-05
1.2773803741e-05
1.20814161253e-05
1.14040525714e-05
1.07404527804e-05
1.00894330254e-05
9.44987660075e-06
8.82072473014e-06
8.20096780543e-06
7.58963682032e-06
6.98579490429e-06
6.38852884992e-06
5.79694053001e-06
5.21013797104e-06
4.62722551522e-06
4.04729150966e-06
3.46938952936e-06
2.89250332912e-06
2.3154730782e-06
1.7368365709e-06
1.15450893828e-06
5.65235614429e-07
6.55426821913e-08
0.000229118211208
0.000231805424343
0.000232155828719
0.000230655677784
0.000228309047611
0.000225731730446
0.000223216631287
0.000220871194596
0.000218716257849
0.000216738866738
0.000214916312814
0.000213225685875
0.000211646957427
0.000210163462118
0.000208761485084
0.000207429650172
0.000206158358753
0.000204939345357
0.000203765347932
0.000202629870079
0.000201527010715
0.000200451340708
0.000199397811201
0.00019836168288
0.000197338468905
0.000196323886664
0.000195313816277
0.000194304261424
0.000193291310902
0.000192271101267
0.000191239783904
0.000190193489268
0.000189128290416
0.000188040165111
0.000186924955795
0.000185778326616
0.000184595716597
0.00018337228787
0.000182102867783
0.000180781883526
0.000179403287902
0.000177960474924
0.000176446184367
0.0001748523953
0.000173170210555
0.00017138973738
0.000169499974974
0.000167488727687
0.00016534257369
0.000163046931644
0.00016058627933
0.000157944582132
0.000155105977567
0.000152055728591
0.000148781406867
0.000145274217342
0.000141530357809
0.000137552333287
0.00013335017146
0.000128942418534
0.000124356586071
0.000119628504286
0.000114800146059
0.000109916130281
0.000105019938504
0.000100151063176
9.53438175246e-05
9.06274254515e-05
8.60266630211e-05
8.15626958963e-05
7.72538016718e-05
7.31157850884e-05
6.91620160317e-05
6.54031600581e-05
6.1846750142e-05
5.84967610754e-05
5.53533389722e-05
5.24128111883e-05
4.96680364075e-05
4.71090596865e-05
4.47239543334e-05
4.24996985575e-05
4.04229556252e-05
3.8480679517e-05
3.66605247795e-05
3.49510801319e-05
3.33419654279e-05
3.18238349337e-05
3.03883238472e-05
2.90279655283e-05
2.77360978085e-05
2.65067694514e-05
2.53346527501e-05
2.42149649214e-05
2.31433990342e-05
2.21160641242e-05
2.11294336691e-05
2.01803013896e-05
1.92657433623e-05
1.83830854732e-05
1.75298753834e-05
1.67038582621e-05
1.5902955681e-05
1.51252471346e-05
1.43689537572e-05
1.36324238548e-05
1.29141199489e-05
1.22126070519e-05
1.15265419539e-05
1.08546633065e-05
1.01957823324e-05
9.54877398602e-06
8.91256842076e-06
8.28614260489e-06
7.66851194485e-06
7.05872173634e-06
6.45583823223e-06
5.85893897074e-06
5.26710174269e-06
4.67939092557e-06
4.09483857477e-06
3.51241479614e-06
2.93097625123e-06
2.34917120508e-06
1.76526405688e-06
1.17683106046e-06
5.80307084817e-07
7.14344046516e-08
0.000223482836439
0.000226120363593
0.000226952871926
0.000226187384442
0.000224556755158
0.000222578927657
0.000220542482834
0.000218579916245
0.000216738116176
0.000215023484846
0.000213426041367
0.000211930880687
0.000210523041503
0.000209189235141
0.000207918200036
0.000206700523471
0.000205528307145
0.000204394830891
0.000203294267613
0.000202221459319
0.000201171747686
0.000200140848045
0.000199124755812
0.000198119676248
0.000197121970485
0.000196128112588
0.00019513465601
0.000194138201266
0.000193135366441
0.000192122759536
0.000191096953739
0.000190054460436
0.000188991701066
0.000187904977144
0.000186790437693
0.00018564404327
0.000184461525589
0.000183238341575
0.000181969620421
0.000180650101981
0.000179274064538
0.000177835239842
0.000176326713333
0.000174740808065
0.000173068952251
0.000171301533501
0.000169427748356
0.00016743546489
0.000165311129459
0.000163039765814
0.000160605132126
0.000157990111692
0.000155177404036
0.000152150543839
0.00014889520657
0.000145400688988
0.000141661429929
0.000137678493102
0.000133461011438
0.00012902753184
0.000124406874779
0.000119637696965
0.000114765967406
0.000109840506087
0.000104908093602
0.000100010011218
9.51809766302e-05
9.04497281061e-05
8.58401365918e-05
8.13724124958e-05
7.70640902035e-05
7.29305668969e-05
6.89851132186e-05
6.52384758273e-05
6.16982828094e-05
5.83684526248e-05
5.5248792874e-05
5.23349525072e-05
4.96188099107e-05
4.70892485735e-05
4.47331579818e-05
4.25364566674e-05
4.04849713451e-05
3.85650840578e-05
3.67641351356e-05
3.50706192598e-05
3.3474231571e-05
3.1965819465e-05
3.05372841383e-05
2.91814622367e-05
2.78920060665e-05
2.66632722391e-05
2.54902229895e-05
2.43683411823e-05
2.32935582741e-05
2.22621937854e-05
2.1270904591e-05
2.03166424226e-05
1.93966181327e-05
1.85082715026e-05
1.76492455662e-05
1.68173646209e-05
1.60106152397e-05
1.52271297373e-05
1.44651716333e-05
1.37231227492e-05
1.29994716303e-05
1.22928030391e-05
1.16017883008e-05
1.09251763149e-05
1.02617850607e-05
9.61049344188e-06
8.97023331586e-06
8.3399815467e-06
7.71875189545e-06
7.10558650608e-06
6.49954663405e-06
5.89970204538e-06
5.30511809103e-06
4.71483864395e-06
4.12786153455e-06
3.54310024068e-06
2.95932054282e-06
2.37503300639e-06
1.78831316474e-06
1.19652024702e-06
5.95913861768e-07
7.97045792951e-08
0.000218970623043
0.000221490890133
0.000222604601266
0.000222356181628
0.000221275469382
0.000219784325961
0.000218148926516
0.000216511276994
0.000214935464645
0.000213443239725
0.000212035883868
0.000210706091001
0.000209443862235
0.000208239162363
0.000207082944481
0.000205967406916
0.000204885922225
0.000203832850916
0.000202803336292
0.000201793119409
0.000200798386072
0.000199815645904
0.000198841638978
0.000197873264385
0.000196907525422
0.000195941486788
0.000194972243099
0.000193996888803
0.000193012491094
0.000192016067911
0.00019100456696
0.000189974843669
0.000188923638091
0.000187847549962
0.00018674301114
0.000185606254491
0.000184433278172
0.000183219803983
0.000181961228175
0.000180652562662
0.000179288364146
0.000177862648186
0.000176368784908
0.000174799373095
0.000173146090335
0.000171399519505
0.000169548957366
0.000167582220973
0.000165485483483
0.000163243193022
0.000160838153622
0.000158251866539
0.000155465226984
0.000152459625973
0.000149218414517
0.000145728582095
0.000141982463998
0.000137979392789
0.000133727382058
0.000129244913606
0.000124562420829
0.00011972227392
0.000114775868136
0.000109777780004
0.000104779241913
9.98238611369e-05
9.49468717094e-05
9.01764835931e-05
8.55355970097e-05
8.10434358425e-05
7.67168441028e-05
7.25709651412e-05
6.86191871055e-05
6.4872560013e-05
6.13389854013e-05
5.80224162274e-05
5.49222874592e-05
5.20333951274e-05
4.93463420743e-05
4.68484835712e-05
4.45251458083e-05
4.23608423298e-05
4.03402773717e-05
3.84490392002e-05
3.66739879177e-05
3.50034006211e-05
3.34269536706e-05
3.19356128254e-05
3.05214829774e-05
2.91776501076e-05
2.78980332521e-05
2.66772543249e-05
2.55105278065e-05
2.43935692423e-05
2.33225202122e-05
2.22938870668e-05
2.13044908911e-05
2.03514264638e-05
1.94320283863e-05
1.85438428917e-05
1.76846041668e-05
1.68522142567e-05
1.60447258326e-05
1.52603272449e-05
1.44973294157e-05
1.37541542026e-05
1.30293239492e-05
1.23214519738e-05
1.16292338027e-05
1.09514389657e-05
1.02869032021e-05
9.63452092083e-06
8.99323776327e-06
8.36204308685e-06
7.73996215009e-06
7.12604768125e-06
6.51937036221e-06
5.91900745763e-06
5.32402831414e-06
4.73347452708e-06
4.1463309905e-06
3.56148135604e-06
2.97763725936e-06
2.39322512193e-06
1.80620973881e-06
1.21383722557e-06
6.12302832784e-07
9.04939076204e-08
0.000215298364667
0.000217677238634
0.000218947696669
0.000219062425521
0.000218403280272
0.000217307084617
0.000216009300952
0.000214650668489
0.000213304892672
0.000212004910398
0.000210761357106
0.000209573809541
0.000208437036642
0.000207344226354
0.000206288516756
0.000205263629537
0.000204264054812
0.000203285028623
0.000202322427592
0.000201372641747
0.000200432453152
0.000199498930897
0.000198569344782
0.000197641096287
0.000196711664103
0.000195778561183
0.000194839302852
0.000193891377767
0.000192932219955
0.000191959189677
0.000190969553647
0.000189960465301
0.000188928944295
0.000187871854386
0.000186785878818
0.000185667492264
0.00018451292813
0.000183318139814
0.000182078754054
0.000180790014026
0.000179446709113
0.000178043087568
0.000176572747428
0.000175028500572
0.000173402204948
0.000171684561921
0.000169864880645
0.000167930821825
0.000165868151402
0.000163660562624
0.000161289660338
0.000158735234166
0.000155975954611
0.000152990576636
0.000149759610181
0.000146267255297
0.00014250332711
0.000138465055691
0.000134158984649
0.000129603297316
0.000124830236317
0.000119886894004
0.000114831929249
0.000109727715579
0.000104631349338
9.95892573691e-05
9.46371494284e-05
8.98025612503e-05
8.51072941356e-05
8.0569505968e-05
7.62053867591e-05
7.20300054227e-05
6.80571275186e-05
6.42983666205e-05
6.0762103489e-05
5.74524281188e-05
5.43683529518e-05
5.15035962239e-05
4.88471124416e-05
4.63842764357e-05
4.4098397977e-05
4.19721904541e-05
3.99889253137e-05
3.81331712299e-05
3.63911510862e-05
3.47508163754e-05
3.32017481203e-05
3.17349726836e-05
3.03427516871e-05
2.90183798765e-05
2.7756006725e-05
2.65504866646e-05
2.53972569841e-05
2.42922399308e-05
2.32317647942e-05
2.22125059774e-05
2.12314335813e-05
2.02857737028e-05
1.93729762154e-05
1.84906883342e-05
1.76367326443e-05
1.68090886098e-05
1.60058767942e-05
1.52253452239e-05
1.44658574382e-05
1.37258818857e-05
1.30039823842e-05
1.22988094264e-05
1.16090921416e-05
1.09336307537e-05
1.0271289388e-05
9.62098907904e-06
8.9817008209e-06
8.35243846547e-06
7.73225121091e-06
7.12021530691e-06
6.51542440439e-06
5.91697764166e-06
5.32396399099e-06
4.73544044825e-06
4.15040012199e-06
3.56772392217e-06
2.98610624801e-06
2.40394134429e-06
1.81915500823e-06
1.22897083511e-06
6.29616417584e-07
1.03861251906e-07
0.000212274704631
0.000214508021227
0.000215857348555
0.00021622591471
0.000215889162638
0.000215112779547
0.000214099370495
0.00021298167711
0.000211837108171
0.000210705958132
0.000209606135893
0.000208543130706
0.00020751610718
0.00020652137828
0.000205554263354
0.000204610010134
0.000203684199623
0.000202772879002
0.000201872560583
0.000200980161866
0.000200092925871
0.000199208340968
0.000198324068599
0.000197437881659
0.000196547613524
0.000195651117217
0.000194746233034
0.000193830760012
0.000192902427876
0.000191958878175
0.000190997644826
0.000190016135141
0.000189011610351
0.000187981164742
0.000186921702495
0.000185829911204
0.000184702230854
0.000183534816693
0.000182323493992
0.000181063702007
0.000179750423584
0.000178378095752
0.000176940495387
0.000175430592775
0.000173840365203
0.000172160563495
0.000170380428439
0.000168487364296
0.000166466596795
0.000164300877049
0.000161970340901
0.000159452685079
0.000156723848076
0.000153759335295
0.000150536161162
0.000147035128965
0.000143243020138
0.000139154493218
0.0001347741067
0.000130119257933
0.000125223990157
0.000120141263235
0.000114939453768
0.000109691537103
0.000104462277493
9.93013175081e-05
9.42445925694e-05
8.93187454556e-05
8.45443269685e-05
7.99383125202e-05
7.55162666048e-05
7.12934102335e-05
6.72842024158e-05
6.35011139162e-05
5.99532259318e-05
5.66448651417e-05
5.35745330595e-05
5.07345595598e-05
4.81117564173e-05
4.56889368931e-05
4.34468332999e-05
4.13658916133e-05
3.942760399e-05
3.76152846655e-05
3.59143698434e-05
3.43123928687e-05
3.27987808996e-05
3.13645808831e-05
3.00021805611e-05
2.87050575438e-05
2.74675685572e-05
2.62847794664e-05
2.51523314232e-05
2.40663367778e-05
2.30232985019e-05
2.20200477024e-05
2.10536948538e-05
2.01215913445e-05
1.92212987727e-05
1.83505640627e-05