/*--------------------------------*- C++ -*----------------------------------*\
  =========                 |
  \\      /  F ield         | OpenFOAM: The Open Source CFD Toolbox
   \\    /   O peration     | Website:  https://openfoam.org
    \\  /    A nd           | Version:  7
     \\/     M anipulation  |
\*---------------------------------------------------------------------------*/
FoamFile
{
    version     2.0;
    format      ascii;
    class       volVectorField;
    location    "2460";
    object      U;
}
// * * * * * * * * * * * * * * * * * * * * * * * * * * * * * * * * * * * * * //

dimensions      [0 1 -1 0 0 0 0];

internalField   nonuniform List<vector> 
8192
(
(0.00104347647453 0.000156523525465 0)
(0.000759368635772 0.000127584310447 0)
(0.000549392239324 8.2392080323e-05 0)
(0.000414138888963 5.2861264413e-05 0)
(0.00032630206359 3.49755552393e-05 0)
(0.000267233720615 2.40927817983e-05 0)
(0.00022587250769 1.72684250528e-05 0)
(0.000195784554245 1.28195222639e-05 0)
(0.000173164912065 9.80011379524e-06 0)
(0.000155693214969 7.67157722936e-06 0)
(0.000141902484978 6.11914676753e-06 0)
(0.000130830438692 4.95289362134e-06 0)
(0.000121823306635 4.05423265027e-06 0)
(0.000114422504312 3.34656401316e-06 0)
(0.00010829715568 2.77877909657e-06 0)
(0.000103202634111 2.31573710241e-06 0)
(9.89542870989e-05 1.93260470573e-06 0)
(9.54102850276e-05 1.61139234501e-06 0)
(9.24601140001e-05 1.33877386362e-06 0)
(9.00166588952e-05 1.10467664467e-06 0)
(8.80106311463e-05 9.01346751357e-07 0)
(8.63865658932e-05 7.22714416519e-07 0)
(8.50998936935e-05 5.63953990494e-07 0)
(8.41147636055e-05 4.21172624566e-07 0)
(8.34024019215e-05 2.91185934369e-07 0)
(8.29398596409e-05 1.71353600189e-07 0)
(8.27090466902e-05 5.94570151451e-08 0)
(8.26959807741e-05 -4.63929891135e-08 0)
(8.28901986134e-05 -1.47826259509e-07 0)
(8.32842908569e-05 -2.46266873952e-07 0)
(8.38735323283e-05 -3.42974928899e-07 0)
(8.46555860083e-05 -4.39078481525e-07 0)
(8.56302626171e-05 -5.3559721415e-07 0)
(8.67993204483e-05 -6.33459014247e-07 0)
(8.81662918775e-05 -7.3351007714e-07 0)
(8.97363236587e-05 -8.36518582876e-07 0)
(9.15160178509e-05 -9.4317165813e-07 0)
(9.3513259243e-05 -1.05406490465e-06 0)
(9.57370134476e-05 -1.16968354814e-06 0)
(9.81970776615e-05 -1.29037394756e-06 0)
(0.000100903763525 -1.41630419507e-06 0)
(0.000103867489034 -1.54741255646e-06 0)
(0.000107098254467 -1.68334306275e-06 0)
(0.00011060497682 -1.82336840506e-06 0)
(0.000114394659202 -1.9663020256e-06 0)
(0.000118471377829 -2.110403598e-06 0)
(0.000122835080947 -2.25328550432e-06 0)
(0.000127480213143 -2.39183171494e-06 0)
(0.000132394205464 -2.5221447474e-06 0)
(0.000137555906433 -2.63953957772e-06 0)
(0.000142934068246 -2.73860492829e-06 0)
(0.000148486041225 -2.81335022496e-06 0)
(0.000154156860245 -2.85745062124e-06 0)
(0.000159878921338 -2.86459214494e-06 0)
(0.000165572438156 -2.82890642143e-06 0)
(0.000171146832953 -2.74547045351e-06 0)
(0.000176503154309 -2.61083360526e-06 0)
(0.000181537523785 -2.42351952255e-06 0)
(0.00018614549377 -2.18443543275e-06 0)
(0.000190227049479 -1.89710695848e-06 0)
(0.000193691823091 -1.56765546978e-06 0)
(0.000196463949123 -1.20446193378e-06 0)
(0.000198485942921 -8.17526190954e-07 0)
(0.000199721088909 -4.17617419975e-07 0)
(0.000200154087607 -1.53824416048e-08 0)
(0.000199790056198 3.79409025243e-07 0)
(0.000198652288897 7.58349807232e-07 0)
(0.000196779342987 1.1145841464e-06 0)
(0.000194221983489 1.44276018098e-06 0)
(0.000191040369126 1.73883614879e-06 0)
(0.000187301669357 1.99984312863e-06 0)
(0.000183078118493 2.22368520941e-06 0)
(0.00017844538793 2.40902122459e-06 0)
(0.000173481106384 2.555235004e-06 0)
(0.000168263374661 2.66247061471e-06 0)
(0.00016286918566 2.73169186838e-06 0)
(0.000157372746067 2.76472113161e-06 0)
(0.000151843777276 2.76422129197e-06 0)
(0.000146345928378 2.73360172164e-06 0)
(0.000140935451028 2.67685043663e-06 0)
(0.000135660263321 2.59831294299e-06 0)
(0.000130559477314 2.50244972499e-06 0)
(0.000125663399672 2.39360565945e-06 0)
(0.000120993954583 2.27581830977e-06 0)
(0.000116565435727 2.15268059813e-06 0)
(0.000112385474501 2.02726185963e-06 0)
(0.000108456113307 1.90208174062e-06 0)
(0.000104774889068 1.77912605515e-06 0)
(0.000101335856139 1.6598915486e-06 0)
(9.81305029085e-05 1.5454474321e-06 0)
(9.51485386721e-05 1.43650358588e-06 0)
(9.23785445861e-05 1.33347826156e-06 0)
(8.98084944592e-05 1.23656055625e-06 0)
(8.74261582268e-05 1.14576524351e-06 0)
(8.52194044183e-05 1.06097895862e-06 0)
(8.31764187008e-05 9.81997927838e-07 0)
(8.1285854779e-05 9.08557890551e-07 0)
(7.95369321652e-05 8.40357300387e-07 0)
(7.79194932397e-05 7.77074838905e-07 0)
(7.64240298385e-05 7.18382369568e-07 0)
(7.50416876062e-05 6.63954223462e-07 0)
(7.37642545555e-05 6.13473701874e-07 0)
(7.25841387841e-05 5.66637421396e-07 0)
(7.14943390324e-05 5.23158123392e-07 0)
(7.04884107658e-05 4.82766343737e-07 0)
(6.9560429629e-05 4.45211368271e-07 0)
(6.87049534618e-05 4.10261717939e-07 0)
(6.79169835025e-05 3.77705474366e-07 0)
(6.71919249294e-05 3.47350617622e-07 0)
(6.65255464379e-05 3.19025651915e-07 0)
(6.59139380984e-05 2.92580699915e-07 0)
(6.53534662248e-05 2.67889396767e-07 0)
(6.48407233585e-05 2.44851881497e-07 0)
(6.43724706427e-05 2.23399415122e-07 0)
(6.39455687159e-05 2.03501243069e-07 0)
(6.35568916002e-05 1.85174737967e-07 0)
(6.3203215595e-05 1.68500252466e-07 0)
(6.28810713921e-05 1.53643043914e-07 0)
(6.25865416234e-05 1.40885917882e-07 0)
(6.23149762546e-05 1.30678739448e-07 0)
(6.20605819018e-05 1.23714998704e-07 0)
(6.18158136649e-05 1.21052728343e-07 0)
(6.1570452843e-05 1.24307703979e-07 0)
(6.13101872074e-05 1.35957684226e-07 0)
(6.10144507137e-05 1.59778727054e-07 0)
(6.06534729318e-05 2.01199152652e-07 0)
(6.018610936e-05 2.66164719011e-07 0)
(5.95784639771e-05 3.41481094194e-07 0)
(0.00121018745642 0.000302859591797 0)
(0.00116036360368 0.000315179924393 0)
(0.00102702445257 0.000238111996947 0)
(0.000887623986585 0.000171795147072 0)
(0.000766976727684 0.00012452573937 0)
(0.000668558104381 9.20295459325e-05 0)
(0.000589668804612 6.95821553105e-05 0)
(0.000526488907845 5.37736238364e-05 0)
(0.000475587160629 4.23673833032e-05 0)
(0.000434232997807 3.39301494934e-05 0)
(0.000400344065617 2.75402187769e-05 0)
(0.00037235215558 2.25957603167e-05 0)
(0.000349075005354 1.86956309515e-05 0)
(0.000329614629404 1.55663270709e-05 0)
(0.000313281932418 1.30170451504e-05 0)
(0.000299542226229 1.0911682754e-05 0)
(0.000287976124445 9.15109229599e-06 0)
(0.000278251401638 7.66161462993e-06 0)
(0.000270102588765 6.3875210811e-06 0)
(0.000263316027476 5.28593209016e-06 0)
(0.000257718798806 4.32333472657e-06 0)
(0.000253170426516 3.47315178713e-06 0)
(0.000249556588848 2.71401516573e-06 0)
(0.000246784300832 2.02851918793e-06 0)
(0.000244778185987 1.40230657253e-06 0)
(0.000243477564338 8.23388693948e-07 0)
(0.000242834158666 2.81633569325e-07 0)
(0.00024281027342 -2.31624032458e-07 0)
(0.000243377337162 -7.2388102088e-07 0)
(0.000244514725464 -1.20169534304e-06 0)
(0.000246208800928 -1.67086442576e-06 0)
(0.000248452119751 -2.13656074218e-06 0)
(0.000251242761905 -2.60343107043e-06 0)
(0.000254583747754 -3.07566416122e-06 0)
(0.000258482507285 -3.55702905106e-06 0)
(0.000262950369351 -4.05088431717e-06 0)
(0.000268002037783 -4.56015697886e-06 0)
(0.000273655019333 -5.08728839407e-06 0)
(0.000279928965323 -5.63414343504e-06 0)
(0.000286844885208 -6.20187853944e-06 0)
(0.000294424186451 -6.790764192e-06 0)
(0.000302687492186 -7.39995830766e-06 0)
(0.000311653187346 -8.02722938404e-06 0)
(0.000321335647174 -8.66863269812e-06 0)
(0.000331743111532 -9.31814988884e-06 0)
(0.000342875187074 -9.96731236609e-06 0)
(0.000354719989755 -1.06048421685e-05 0)
(0.000367250984748 -1.12163592145e-05 0)
(0.000380423639935 -1.17842193095e-05 0)
(0.000394172080598 -1.22875590751e-05 0)
(0.000408406010123 -1.27026274345e-05 0)
(0.000423008233471 -1.30034733826e-05 0)
(0.000437833171931 -1.31630334675e-05 0)
(0.000452706773507 -1.3154620272e-05 0)
(0.000467428190062 -1.29537604528e-05 0)
(0.000481773503491 -1.25402747098e-05 0)
(0.000495501637815 -1.19004372858e-05 0)
(0.000508362395019 -1.10289979979e-05 0)
(0.000520106301898 -9.9307936567e-06 0)
(0.000530495661921 -8.62162987079e-06 0)
(0.000539315902305 -7.12811878088e-06 0)
(0.000546386068121 -5.4862707287e-06 0)
(0.000551567255407 -3.73888785004e-06 0)
(0.000554767992812 -1.93213848007e-06 0)
(0.000555946079802 -1.11956863666e-07 0)
(0.000555107035227 1.67903905222e-06 0)
(0.000552299888662 3.40360297259e-06 0)
(0.000547611358705 5.03076653946e-06 0)
(0.00054115943893 6.53580806644e-06 0)
(0.00053308716258 7.89962243094e-06 0)
(0.000523556974169 9.10788216244e-06 0)
(0.000512745801678 1.01503016069e-05 0)
(0.000500840683827 1.10201814978e-05 0)
(0.000488034696935 1.17142687928e-05 0)
(0.000474522939423 1.22328501699e-05 0)
(0.000460498436232 1.25799281195e-05 0)
(0.000446147973519 1.2763311218e-05 0)
(0.000431648017882 1.27944808678e-05 0)
(0.000417160974055 1.2688161966e-05 0)
(0.000402832065683 1.24616053904e-05 0)
(0.00038878708189 1.21336617539e-05 0)
(0.000375131134345 1.17237698037e-05 0)
(0.000361948446025 1.12509901513e-05 0)
(0.000349303075926 1.07331909907e-05 0)
(0.000337240398183 1.01864499223e-05 0)
(0.00032578910994 9.62469081345e-06 0)
(0.000314963538384 9.05953769646e-06 0)
(0.000304766043238 8.50034489772e-06 0)
(0.000295189354097 7.95435333027e-06 0)
(0.000286218730152 7.42692438213e-06 0)
(0.000277833875057 6.92181038368e-06 0)
(0.000270010576802 6.44143093039e-06 0)
(0.000262722070151 5.98713434648e-06 0)
(0.000255940137662 5.55943226143e-06 0)
(0.000249635976035 5.15820172108e-06 0)
(0.000243780859513 4.78285386649e-06 0)
(0.000238346632867 4.43247095967e-06 0)
(0.000233306064846 4.10591515609e-06 0)
(0.000228633089773 3.80191299555e-06 0)
(0.000224302961281 3.51911972695e-06 0)
(0.00022029233824 3.25616725408e-06 0)
(0.000216579319331 3.01169913023e-06 0)
(0.000213143439389 2.78439548767e-06 0)
(0.000209965637784 2.57299037945e-06 0)
(0.000207028206659 2.37628353382e-06 0)
(0.000204314724805 2.19314822366e-06 0)
(0.000201809981183 2.02253661984e-06 0)
(0.000199499890671 1.8634838444e-06 0)
(0.000197371403289 1.71511175978e-06 0)
(0.000195412407005 1.57663352511e-06 0)
(0.000193611623095 1.44735993048e-06 0)
(0.000191958491858 1.32670868355e-06 0)
(0.000190443045214 1.21421800465e-06 0)
(0.000189055761265 1.10956629682e-06 0)
(0.000187787394118 1.01260016898e-06 0)
(0.000186628770179 9.23373952318e-07 0)
(0.000185570539621 8.42205006332e-07 0)
(0.000184602868917 7.69750896008e-07 0)
(0.000183715057749 7.0711698186e-07 0)
(0.000182895062619 6.56006437667e-07 0)
(0.000182128914068 6.1892877059e-07 0)
(0.00018140003463 5.99485538211e-07 0)
(0.000180688526106 6.02743546373e-07 0)
(0.000179970662391 6.35650965259e-07 0)
(0.000179219268209 7.07216418546e-07 0)
(0.000178406777659 8.2723057339e-07 0)
(0.000177516103705 9.98171912914e-07 0)
(0.000176562916793 1.17030728324e-06 0)
(0.00122478286984 0.000267889259996 0)
(0.00124106781168 0.000383689149943 0)
(0.00119609941366 0.000347910297385 0)
(0.00111320812642 0.000284288576643 0)
(0.00102001431144 0.000225873359956 0)
(0.000930222792578 0.000178892043234 0)
(0.000849269431206 0.000142562294588 0)
(0.00077855395255 0.000114688835369 0)
(0.000717712779756 9.31950672738e-05 0)
(0.000665724421407 7.64449624013e-05 0)
(0.000621413431682 6.32253037823e-05 0)
(0.00058366179398 5.26541993993e-05 0)
(0.00055148397853 4.40921342949e-05 0)
(0.000524041652424 3.70725029844e-05 0)
(0.000500633902834 3.12512935125e-05 0)
(0.000480679330716 2.63716909549e-05 0)
(0.000463697093526 2.22394019394e-05 0)
(0.00044928966435 1.87054365224e-05 0)
(0.000437128139425 1.56540172895e-05 0)
(0.000426940107984 1.29940097434e-05 0)
(0.000418499793598 1.06527821703e-05 0)
(0.000411620098446 8.57175482306e-06 0)
(0.000406146197304 6.70313506558e-06 0)
(0.000401950375877 5.00749404668e-06 0)
(0.000398927861733 3.45194730818e-06 0)
(0.000396993445268 2.00877408206e-06 0)
(0.000396078729288 6.54359362392e-07 0)
(0.00039612987892 -6.31623037504e-07 0)
(0.000397105768453 -1.86684234226e-06 0)
(0.000398976441965 -3.06680097569e-06 0)
(0.000401721820883 -4.24521625743e-06 0)
(0.000405330601101 -5.41430882593e-06 0)
(0.000409799288681 -6.58501123084e-06 0)
(0.000415131328258 -7.76710540891e-06 0)
(0.000421336280649 -8.9692930136e-06 0)
(0.000428429006517 -1.01991987111e-05 0)
(0.000436428811594 -1.14633034839e-05 0)
(0.000445358506311 -1.27668023479e-05 0)
(0.000455243329085 -1.41133790816e-05 0)
(0.000466109678561 -1.55048895875e-05 0)
(0.000477983596651 -1.69409461865e-05 0)
(0.000490888942513 -1.84183978945e-05 0)
(0.000504845199248 -1.99307078905e-05 0)
(0.000519864862537 -2.1467239696e-05 0)
(0.000535950376266 -2.30124795865e-05 0)
(0.000553090607824 -2.45452446802e-05 0)
(0.000571256898138 -2.60379542173e-05 0)
(0.00059039878109 -2.74560731482e-05 0)
(0.000610439543743 -2.87578682185e-05 0)
(0.000631271889614 -2.98946390356e-05 0)
(0.000652754063258 -3.08115907682e-05 0)
(0.000674706881738 -3.14494903337e-05 0)
(0.000696912177836 -3.17471885169e-05 0)
(0.000719113171083 -3.1644997231e-05 0)
(0.00074101722917 -3.1088795966e-05 0)
(0.000762301356779 -3.00346197436e-05 0)
(0.000782620553033 -2.84533652166e-05 0)
(0.000801618919864 -2.63351407137e-05 0)
(0.000818943087185 -2.36926774718e-05 0)
(0.000834257155961 -2.05631344915e-05 0)
(0.000847257980891 -1.70076480363e-05 0)
(0.000857689309638 -1.31082150632e-05 0)
(0.000865353209913 -8.9620219047e-06 0)
(0.000870117485484 -4.67402101771e-06 0)
(0.000871918423363 -3.49116128574e-07 0)
(0.000870759054395 3.91458161148e-06 0)
(0.00086670385884 8.03035950077e-06 0)
(0.000859871247313 1.19250966612e-05 0)
(0.000850425118101 1.55394616149e-05 0)
(0.000838566476427 1.8826812628e-05 0)
(0.000824525673949 2.17516012251e-05 0)
(0.000808555416206 2.42879254098e-05 0)
(0.000790924392651 2.64186075626e-05 0)
(0.000771911247975 2.81348800757e-05 0)
(0.000751798628384 2.94365204753e-05 0)
(0.000730867161883 3.0332131947e-05 0)
(0.000709389410967 3.08392265208e-05 0)
(0.000687624010493 3.0983829172e-05 0)
(0.00066581032353 3.07994547121e-05 0)
(0.000644163982249 3.03254759108e-05 0)
(0.000622873624084 2.96050506065e-05 0)
(0.000602099006218 2.8682867875e-05 0)
(0.000581970522686 2.76029897337e-05 0)
(0.00056258999861 2.64070157526e-05 0)
(0.000544032526121 2.51327099377e-05 0)
(0.000526349049196 2.38131348226e-05 0)
(0.000509569397818 2.24762596828e-05 0)
(0.000493705502644 2.11449603461e-05 0)
(0.000478754574039 1.98373066252e-05 0)
(0.000464702089348 1.85670344086e-05 0)
(0.000451524489322 1.73441136544e-05 0)
(0.000439191532673 1.61753440282e-05 0)
(0.000427668294546 1.5064930576e-05 0)
(0.00041691682035 1.40150101589e-05 0)
(0.000406897462491 1.3026113455e-05 0)
(0.000397569936138 1.20975576768e-05 0)
(0.000388894133275 1.12277716812e-05 0)
(0.00038083073374 1.04145592053e-05 0)
(0.000373341649253 9.65530775985e-06 0)
(0.000366390332417 8.94715143982e-06 0)
(0.000359941978337 8.28709556826e-06 0)
(0.000353963642054 7.67211054054e-06 0)
(0.000348424290861 7.09920124623e-06 0)
(0.000343294806853 6.56545765248e-06 0)
(0.000338547951763 6.06809116302e-06 0)
(0.000334158303329 5.60446073288e-06 0)
(0.000330102169976 5.17209199518e-06 0)
(0.000326357488534 4.76869229482e-06 0)
(0.000322903707876 4.39216409258e-06 0)
(0.000319721659751 4.04061912866e-06 0)
(0.00031679341662 3.71239559837e-06 0)
(0.000314102134919 3.40608081372e-06 0)
(0.000311631880858 3.1205420004e-06 0)
(0.000309367434599 2.85496842889e-06 0)
(0.000307294067546 2.6089286013e-06 0)
(0.000305397286666 2.38244710188e-06 0)
(0.000303662539714 2.17610649385e-06 0)
(0.000302074876817 1.99118047652e-06 0)
(0.0003006185688 1.82980438457e-06 0)
(0.0002992766943 1.69518680977e-06 0)
(0.000298030732587 1.59185719286e-06 0)
(0.000296860249483 1.52591863349e-06 0)
(0.000295742862856 1.50520511137e-06 0)
(0.000294654862674 1.53905342833e-06 0)
(0.000293573195592 1.63687606892e-06 0)
(0.00029248006046 1.80319806698e-06 0)
(0.000291371124582 2.02181594083e-06 0)
(0.000290261695072 2.20928108799e-06 0)
(0.00122191192727 0.000221194457203 0)
(0.00125330381488 0.00038270710543 0)
(0.00125082702956 0.000396337501102 0)
(0.00121291236749 0.000356667298201 0)
(0.0011545854747 0.000305015321679 0)
(0.00108825527587 0.000255871774185 0)
(0.00102140149459 0.000213389680993 0)
(0.000957990838961 0.00017798755788 0)
(0.000899853748076 0.000148874583131 0)
(0.000847614499651 0.000124993028158 0)
(0.000801255821865 0.000105346880591 0)
(0.000760444970204 8.90950872743e-05 0)
(0.000724715553031 7.55584546705e-05 0)
(0.000693565364258 6.41986734654e-05 0)
(0.000666506489783 5.45917234689e-05 0)
(0.000643088861448 4.64034382666e-05 0)
(0.000622909391193 3.93693393817e-05 0)
(0.000605613539528 3.32787577824e-05 0)
(0.000590893137252 2.79626017041e-05 0)
(0.000578482552181 2.32840209933e-05 0)
(0.00056815431834 1.91312990463e-05 0)
(0.000559714800516 1.5412431645e-05 0)
(0.000553000166376 1.2050975147e-05 0)
(0.000547872775276 8.98284909953e-06 0)
(0.000544218006884 6.15385847132e-06 0)
(0.000541941509522 3.51776159463e-06 0)
(0.000540966828182 1.03475528541e-06 0)
(0.000541233364652 -1.32971757128e-06 0)
(0.000542694619256 -3.605902966e-06 0)
(0.000545316667016 -5.8204710367e-06 0)
(0.000549076824819 -7.99709059423e-06 0)
(0.00055396246529 -1.01568609836e-05 0)
(0.000559969934382 -1.23186195404e-05 0)
(0.000567103530983 -1.44991349087e-05 0)
(0.000575374505925 -1.67131901621e-05 0)
(0.000584800035949 -1.89735542898e-05 0)
(0.00059540212517 -2.12908363936e-05 0)
(0.000607206382924 -2.36732132894e-05 0)
(0.000620240622646 -2.61260190432e-05 0)
(0.000634533222391 -2.86511841194e-05 0)
(0.000650111184549 -3.12465138997e-05 0)
(0.000666997831623 -3.39048017096e-05 0)
(0.000685210078304 -3.66127825804e-05 0)
(0.000704755230052 -3.93499515613e-05 0)
(0.00072562727781 -4.20872971297e-05 0)
(0.000747802690792 -4.47860360244e-05 0)
(0.000771235757917 -4.73964811673e-05 0)
(0.000795853595869 -4.98572246021e-05 0)
(0.000821551028426 -5.20948663309e-05 0)
(0.000848185644063 -5.40245539243e-05 0)
(0.000875573447598 -5.55516020537e-05 0)
(0.000903485620632 -5.6574417509e-05 0)
(0.000931646972456 -5.69888547189e-05 0)
(0.000959736673581 -5.66939700372e-05 0)
(0.000987391798565 -5.55989508562e-05 0)
(0.00101421405565 -5.36307951192e-05 0)
(0.00103977985421 -5.07421323124e-05 0)
(0.00106365356949 -4.69184067534e-05 0)
(0.00108540351366 -4.21834787659e-05 0)
(0.00110461971257 -3.66025631311e-05 0)
(0.00112093213914 -3.02814411406e-05 0)
(0.00113402766022 -2.33612516128e-05 0)
(0.00114366380057 -1.60090167306e-05 0)
(0.00114967771431 -8.40521821572e-06 0)
(0.00115198953518 -7.30692903272e-07 0)
(0.00115060033158 6.84470317204e-06 0)
(0.00114558582637 1.41698988989e-05 0)
(0.0011370875077 2.11164365969e-05 0)
(0.00112530268326 2.7579014715e-05 0)
(0.00111047461667 3.34738989194e-05 0)
(0.00109288336307 3.87364954351e-05 0)
(0.00107283744437 4.33191269164e-05 0)
(0.00105066617578 4.71896138155e-05 0)
(0.00102671231317 5.03307944759e-05 0)
(0.00100132472232 5.27407289461e-05 0)
(0.000974850927258 5.44330977069e-05 0)
(0.000947629608368 5.54372445141e-05 0)
(0.000919983325139 5.5797410976e-05 0)
(0.000892211876539 5.55709274153e-05 0)
(0.000864586746538 5.48253968158e-05 0)
(0.000837347007369 5.36351531304e-05 0)
(0.000810696894963 5.20774257351e-05 0)
(0.000784805077729 5.02286669098e-05 0)
(0.000759805461776 4.81614170717e-05 0)
(0.000735799248163 4.59419373538e-05 0)
(0.000712857894544 4.36286846548e-05 0)
(0.000691026629368 4.12715770422e-05 0)
(0.000670328205129 3.89119167994e-05 0)
(0.000650766639027 3.65828028476e-05 0)
(0.000632330758307 3.4309864928e-05 0)
(0.00061499743222 3.2112173733e-05 0)
(0.000598734426786 3.00032134618e-05 0)
(0.000583502860193 2.79918360336e-05 0)
(0.000569259266062 2.60831457472e-05 0)
(0.000555957290769 2.4279286105e-05 0)
(0.000543549061655 2.25801177714e-05 0)
(0.000531986267659 2.09837877592e-05 0)
(0.000521220994317 1.94871971999e-05 0)
(0.000511206352991 1.8086378518e-05 0)
(0.000501896940485 1.6776794578e-05 0)
(0.00049324916085 1.55535721894e-05 0)
(0.000485221436649 1.44116818235e-05 0)
(0.000477774332518 1.33460739727e-05 0)
(0.00047087060982 1.235178148e-05 0)
(0.000464475227519 1.14239956381e-05 0)
(0.000458555301197 1.05581228944e-05 0)
(0.00045308002936 9.74982778622e-06 0)
(0.000448020593728 8.99506713694e-06 0)
(0.000443350038174 8.29011974061e-06 0)
(0.000439043129126 7.6316155752e-06 0)
(0.000435076198732 7.01656817279e-06 0)
(0.000431426970726 6.44241395352e-06 0)
(0.000428074367863 5.9070622454e-06 0)
(0.000424998299029 5.40896013907e-06 0)
(0.000422179423835 4.94717635455e-06 0)
(0.000419598893049 4.52150854762e-06 0)
(0.000417238065106 4.13261776523e-06 0)
(0.000415078203206 3.78219209713e-06 0)
(0.000413100165783 3.47313656643e-06 0)
(0.000411284118121 3.20977544047e-06 0)
(0.000409609318787 2.99802859365e-06 0)
(0.000408054077741 2.84547077049e-06 0)
(0.00040659605104 2.76106619224e-06 0)
(0.000405213133436 2.75411061981e-06 0)
(0.000403885308561 2.83131199345e-06 0)
(0.000402597701918 2.98950560652e-06 0)
(0.000401343757692 3.19839034538e-06 0)
(0.000400121274837 3.36462056078e-06 0)
(0.00121690016381 0.000182382360047 0)
(0.00124893139404 0.000358096065741 0)
(0.00126528192198 0.000407074772595 0)
(0.00125514574116 0.000393980844209 0)
(0.00122430621219 0.000356868171625 0)
(0.00118108112549 0.000313574183418 0)
(0.00113202733597 0.00027159481591 0)
(0.00108152615203 0.00023369423577 0)
(0.00103226994212 0.000200561179285 0)
(0.000985793358829 0.000172022237067 0)
(0.000942881774418 0.000147587907363 0)
(0.000903853808417 0.000126692851832 0)
(0.000868747832476 0.000108796057111 0)
(0.000837441820501 9.34172459108e-05 0)
(0.000809728847519 8.01449729115e-05 0)
(0.000785363751232 6.86328882096e-05 0)
(0.000764091321367 5.85917647004e-05 0)
(0.000745662792901 4.97806881627e-05 0)
(0.000729845015084 4.19988274626e-05 0)
(0.000716425092099 3.50782798705e-05 0)
(0.000705212271052 2.8878072228e-05 0)
(0.000696038197892 2.32792272717e-05 0)
(0.00068875624324 1.81807468554e-05 0)
(0.000683240333531 1.34963575334e-05 0)
(0.000679383553456 9.15187870088e-06 0)
(0.00067709667821 5.08309511411e-06 0)
(0.000676306725814 1.23403767159e-06 0)
(0.000676955576616 -2.4444039412e-06 0)
(0.000678998677216 -5.99558729334e-06 0)
(0.000682403832492 -9.4580039155e-06 0)
(0.00068715007817 -1.28659739317e-05 0)
(0.000693226613152 -1.62501642756e-05 0)
(0.000700631766738 -1.96379484167e-05 0)
(0.000709371971575 -2.3053615131e-05 0)
(0.00071946070812 -2.65184271095e-05 0)
(0.000730917381551 -3.00505243415e-05 0)
(0.000743766087059 -3.36646623101e-05 0)
(0.000758034214282 -3.73717711076e-05 0)
(0.000773750836529 -4.11783192936e-05 0)
(0.000790944825925 -4.50854662685e-05 0)
(0.000809642632348 -4.9087990576e-05 0)
(0.000829865663457 -5.31729902782e-05 0)
(0.000851627206769 -5.73183677347e-05 0)
(0.000874928845184 -6.14911368424e-05 0)
(0.000899756337464 -6.56456286087e-05 0)
(0.000926074968674 -6.97217218564e-05 0)
(0.000953824426163 -7.36432894609e-05 0)
(0.000982913327697 -7.73171217504e-05 0)
(0.00101321362102 -8.06326575813e-05 0)
(0.00104455518581 -8.3462902359e-05 0)
(0.00107672109037 -8.56669179872e-05 0)
(0.00110944406928 -8.70942071635e-05 0)
(0.0011424048682 -8.75911672854e-05 0)
(0.00117523311931 -8.70095596223e-05 0)
(0.00120751134086 -8.52166568997e-05 0)
(0.001238782489 -8.21064434935e-05 0)
(0.00126856124191 -7.76109857998e-05 0)
(0.00129634888524 -7.17108647706e-05 0)
(0.0013216513006 -6.44433371555e-05 0)
(0.00134399911409 -5.59066796509e-05 0)
(0.00136296853201 -4.62591389413e-05 0)
(0.00137820086313 -3.57113848703e-05 0)
(0.00138941844565 -2.45125956689e-05 0)
(0.00139643497314 -1.293208146e-05 0)
(0.00139915917076 -1.23986133726e-06 0)
(0.00139759212876 1.03100917091e-05 0)
(0.00139181978469 2.14913223852e-05 0)
(0.00138200257805 3.21104904438e-05 0)
(0.00136836412592 4.20081800768e-05 0)
(0.00135118019693 5.10566639616e-05 0)
(0.00133076860744 5.91565020393e-05 0)
(0.00130748010905 6.62334612573e-05 0)
(0.00128168997351 7.22366042059e-05 0)
(0.00125378984465 7.71377142867e-05 0)
(0.00122417949271 8.09316700475e-05 0)
(0.00119325831119 8.36370518543e-05 0)
(0.00116141665874 8.52961819138e-05 0)
(0.00112902739421 8.59739438972e-05 0)
(0.00109643811539 8.57550474951e-05 0)
(0.00106396464744 8.47398037752e-05 0)
(0.00103188622816 8.30388375448e-05 0)
(0.00100044263857 8.07673802736e-05 0)
(0.000969833291517 7.80398177588e-05 0)
(0.00094021808051 7.49650384183e-05 0)
(0.000911719647817 7.16429116171e-05 0)
(0.000884426666396 6.81619986754e-05 0)
(0.000858397735021 6.45984165853e-05 0)
(0.000833665536883 6.10156602176e-05 0)
(0.000810240985924 5.74651404276e-05 0)
(0.000788117163631 5.39871974253e-05 0)
(0.000767272920132 5.06123807864e-05 0)
(0.00074767607168 4.73628329389e-05 0)
(0.000729286170457 4.42536594875e-05 0)
(0.000712056853276 4.12942109902e-05 0)
(0.00069593779541 3.84892334958e-05 0)
(0.000680876306931 3.58398693666e-05 0)
(0.000666818613992 3.33445062572e-05 0)
(0.000653710868303 3.09994825121e-05 0)
(0.000641499926209 2.87996628957e-05 0)
(0.000630133935339 2.67389012172e-05 0)
(0.00061956276261 2.48104068152e-05 0)
(0.000609738292873 2.30070311918e-05 0)
(0.000600614623147 2.13214895764e-05 0)
(0.000592148173228 1.9746530575e-05 0)
(0.00058429772978 1.82750652554e-05 0)
(0.000577024437657 1.69002654831e-05 0)
(0.000570291749328 1.56156398468e-05 0)
(0.000564065340752 1.44150944168e-05 0)
(0.000558312999891 1.32929845892e-05 0)
(0.000553004492235 1.22441636612e-05 0)
(0.000548111406165 1.12640332399e-05 0)
(0.000543606979792 1.0348600358e-05 0)
(0.00053946591004 9.49454590334e-06 0)
(0.000535664144289 8.69930882488e-06 0)
(0.000532178655095 7.96119009053e-06 0)
(0.000528987199513 7.27947945517e-06 0)
(0.000526068066965 6.65460584634e-06 0)
(0.000523399823901 6.08830768782e-06 0)
(0.000520961070908 5.58381031321e-06 0)
(0.000518730239513 5.1459799094e-06 0)
(0.000516685473514 4.78138890451e-06 0)
(0.000514804664085 4.49816075286e-06 0)
(0.000513065737176 4.30533012037e-06 0)
(0.000511447310825 4.21119154503e-06 0)
(0.000509929785595 4.21958270507e-06 0)
(0.000508496574801 4.32205427465e-06 0)
(0.000507133800961 4.48256167271e-06 0)
(0.000505823656028 4.6130785405e-06 0)
(0.00121280164442 0.00015268054524 0)
(0.00124152285205 0.000327045422456 0)
(0.00126531300414 0.000397984708859 0)
(0.00127125475858 0.000407265307566 0)
(0.00125961622252 0.000386061746147 0)
(0.0012350453335 0.000352176556912 0)
(0.0012023840504 0.000314707487025 0)
(0.00116546895626 0.000277997814616 0)
(0.00112703836722 0.000243944371257 0)
(0.00108893476867 0.00021321919886 0)
(0.00105233850913 0.000185898761554 0)
(0.00101796309622 0.0001617853487 0)
(0.000986202503611 0.000140570101099 0)
(0.000957237348487 0.000121914341513 0)
(0.000931109565345 0.000105488606142 0)
(0.000907774089273 9.09898003e-05 0)
(0.000887134176081 7.81471689193e-05 0)
(0.000869065247922 6.67227141558e-05 0)
(0.000853430772739 5.6509028434e-05 0)
(0.000840092655843 4.7326093171e-05 0)
(0.000828917876835 3.90178338501e-05 0)
(0.000819782575731 3.14488153119e-05 0)
(0.000812574420056 2.45012451272e-05 0)
(0.000807193824888 1.80723407729e-05 0)
(0.000803554417137 1.20720606335e-05 0)
(0.000801583009928 6.42117376664e-06 0)
(0.000801219265698 1.0496346353e-06 0)
(0.000802415165592 -4.10477167138e-06 0)
(0.000805134358026 -9.09753163762e-06 0)
(0.000809351435886 -1.39783106195e-05 0)
(0.000815051167783 -1.87916614819e-05 0)
(0.000822227686633 -2.35775458861e-05 0)
(0.000830883631522 -2.83716791321e-05 0)
(0.000841029228809 -3.3205698773e-05 0)
(0.000852681289758 -3.81071514229e-05 0)
(0.000865862094381 -4.30992866039e-05 0)
(0.000880598124112 -4.82006416925e-05 0)
(0.000896918599263 -5.34243981939e-05 0)
(0.000914853770914 -5.87774876876e-05 0)
(0.000934432911437 -6.42594266531e-05 0)
(0.000955681943786 -6.9860864888e-05 0)
(0.000978620648106 -7.55618441763e-05 0)
(0.0010032593868 -8.13297852833e-05 0)
(0.00102959529813 -8.71172549484e-05 0)
(0.00105760792682 -9.28596137053e-05 0)
(0.00108725429204 -9.84727116412e-05 0)
(0.00111846344274 -0.000103850882448 0)
(0.00115113062208 -0.000108865580354 0)
(0.00118511126014 -0.000113365097264 0)
(0.00122021513494 -0.000117175865463 0)
(0.00125620117923 -0.000120105863463 0)
(0.00129277354517 -0.000121950563084 0)
(0.00132957964055 -0.000122501659446 0)
(0.00136621088308 -0.00012155851271 0)
(0.00140220685065 -0.000118941843074 0)
(0.00143706332624 -0.000114508830651 0)
(0.00147024446747 -0.000108168442961 0)
(0.00150119900622 -9.98955418108e-05 0)
(0.00152938001232 -8.97420372313e-05 0)
(0.00155426728698 -7.78430286545e-05 0)
(0.00157539082266 -6.44157116112e-05 0)
(0.00159235304226 -4.97493399993e-05 0)
(0.00160484703436 -3.41862028663e-05 0)
(0.00161266822479 -1.80961918045e-05 0)
(0.00161571812422 -1.84986027751e-06 0)
(0.00161400059442 1.42046375609e-05 0)
(0.00160761262555 2.97570525412e-05 0)
(0.00159673221414 4.4542330568e-05 0)
(0.0015816055696 5.83413794988e-05 0)
(0.00156253506169 7.09778366584e-05 0)
(0.00153986849026 8.23134194728e-05 0)
(0.00151398960631 9.22438509581e-05 0)
(0.00148530941384 0.000100696464378 0)
(0.00145425765976 0.000107629657376 0)
(0.00142127404017 0.000113033618516 0)
(0.00138679892626 0.000116931319715 0)
(0.00135126374431 0.000119378671215 0)
(0.00131508144717 0.000120462941663 0)
(0.00127863771308 0.000120298991326 0)
(0.00124228354553 0.000119023427878 0)
(0.00120632981692 0.000116787297814 0)
(0.00117104404486 0.000113748222325 0)
(0.00113664939778 0.000110062914782 0)
(0.00110332567581 0.000105880823561 0)
(0.00107121185317 0.000101339335126 0)
(0.00104040970837 9.65606586847e-05 0)
(0.00101098808869 9.16502686941e-05 0)
(0.0009829874259 8.66966336525e-05 0)
(0.000956424210315 8.17719014463e-05 0)
(0.000931295220644 7.69332193251e-05 0)
(0.00090758138453 7.22244122483e-05 0)
(0.000885251205963 6.7677804798e-05 0)
(0.000864263740038 6.33160334043e-05 0)
(0.000844571125555 5.91537494808e-05 0)