/*--------------------------------*- C++ -*----------------------------------*\
  =========                 |
  \\      /  F ield         | OpenFOAM: The Open Source CFD Toolbox
   \\    /   O peration     | Website:  https://openfoam.org
    \\  /    A nd           | Version:  7
     \\/     M anipulation  |
\*---------------------------------------------------------------------------*/
FoamFile
{
    version     2.0;
    format      ascii;
    class       volScalarField;
    location    "1140";
    object      Ci;
}
// * * * * * * * * * * * * * * * * * * * * * * * * * * * * * * * * * * * * * //

dimensions      [0 -3 0 0 1 0 0];

internalField   nonuniform List<scalar> 
8192
(
10.0000000222
9.99999992355
9.9999997998
9.99999966773
9.99999952982
9.99999937815
9.99999920831
9.99999901849
9.99999881043
9.99999858327
9.99999833881
9.99999807521
9.99999779442
9.9999974943
9.9999971776
9.99999684233
9.99999649238
9.9999961262
9.99999574899
9.99999535968
9.99999496479
9.99999456358
9.99999416385
9.99999376529
9.99999337682
9.99999299821
9.99999263911
9.99999229896
9.99999198767
9.9999917038
9.99999145702
9.99999124479
9.99999107613
9.99999094681
9.99999086459
9.99999082312
9.99999082845
9.99999087177
9.99999095718
9.99999107331
9.99999122225
9.99999139037
9.99999157802
9.9999917699
9.99999196539
9.99999214857
9.99999231907
9.99999246191
9.99999257876
9.99999265763
9.99999270434
9.999992712
9.99999269247
9.99999264528
9.99999258884
9.99999252846
9.99999248715
9.99999247253
9.99999250726
9.99999259529
9.9999927527
9.99999297475
9.9999932686
9.99999362264
9.99999404076
9.99999451199
9.99999504268
9.99999562339
9.99999625842
9.99999693281
9.9999976434
9.99999836924
9.9999991041
9.99999982809
10.0000005386
10.0000012216
10.0000018805
10.0000025078
10.0000031132
10.0000036954
10.0000042691
10.000004837
10.0000054165
10.0000060115
10.0000066384
10.0000072992
10.0000080069
10.0000087594
10.0000095653
10.0000104181
10.0000113217
10.000012266
10.0000132512
10.0000142647
10.0000153045
10.000016357
10.0000174195
10.0000184784
10.0000195298
10.0000205607
10.0000215678
10.0000225395
10.0000234735
10.0000243603
10.0000251985
10.0000259806
10.0000267064
10.0000273699
10.0000279719
10.0000285081
10.0000289797
10.0000293839
10.0000297222
10.0000299928
10.0000301977
10.0000303357
10.0000304089
10.0000304167
10.0000303608
10.0000302409
10.0000300589
10.0000298156
10.0000295154
10.0000291646
10.0000287749
10.0000283641
10.0000279649
10.0000276644
9.99999997975
9.9999998774
9.99999977431
9.99999967364
9.99999956556
9.99999944152
9.99999929825
9.99999913415
9.99999895057
9.9999987471
9.99999852545
9.99999828452
9.99999802603
9.99999774852
9.99999745417
9.99999714165
9.99999681408
9.99999647052
9.99999611523
9.9999957478
9.99999537368
9.99999499272
9.99999461152
9.99999423073
9.99999385791
9.9999934938
9.99999314657
9.99999281678
9.9999925128
9.99999223426
9.9999919893
9.99999177691
9.99999160447
9.99999146948
9.99999137806
9.99999132581
9.99999131721
9.99999134561
9.99999141364
9.99999151232
9.99999164238
9.99999179272
9.99999196252
9.99999213913
9.99999232084
9.99999249444
9.9999926585
9.99999280068
9.99999292139
9.99999301096
9.99999307346
9.99999310361
9.99999311055
9.99999309435
9.99999306944
9.99999304048
9.99999302537
9.99999303057
9.99999307355
9.9999931581
9.99999329684
9.99999348751
9.99999373656
9.99999403721
9.99999439356
9.99999479899
9.99999525842
9.99999576526
9.99999632195
9.9999969173
9.99999754814
9.99999819883
9.99999886386
9.99999952801
10.0000001881
10.0000008325
10.0000014624
10.000002071
10.0000026642
10.0000032401
10.0000038092
10.0000043737
10.0000049469
10.0000055328
10.0000061448
10.0000067859
10.0000074675
10.0000081895
10.0000089593
10.0000097734
10.0000106348
10.0000115365
10.0000124782
10.0000134499
10.0000144489
10.0000154639
10.0000164925
10.0000175223
10.000018548
10.0000195582
10.0000205484
10.0000215083
10.0000224345
10.0000233184
10.0000241576
10.0000249452
10.0000256798
10.0000263563
10.0000269742
10.0000275299
10.0000280236
10.0000284527
10.0000288183
10.0000291188
10.0000293553
10.0000295273
10.000029636
10.0000296812
10.0000296642
10.000029585
10.0000294449
10.000029245
10.0000289889
10.0000286816
10.0000283311
10.0000279489
10.0000275511
10.0000272053
9.99999997986
9.99999990368
9.99999983234
9.99999975733
9.99999967738
9.99999958658
9.99999948288
9.99999936303
9.99999922776
9.99999907463
9.99999890538
9.99999871754
9.99999851356
9.99999829081
9.99999805247
9.99999779591
9.99999752524
9.999997238
9.9999969394
9.99999662725
9.99999630795
9.99999597956
9.99999564958
9.99999531634
9.9999949884
9.9999946642
9.999994353
9.99999405313
9.99999377417
9.99999351395
9.99999328188
9.99999307508
9.99999290237
9.99999275976
9.99999265507
9.99999258278
9.99999254942
9.99999254754
9.99999258231
9.99999264417
9.99999273699
9.9999928492
9.99999298355
9.99999312699
9.99999328156
9.99999343355
9.99999358503
9.99999372268
9.99999384974
9.99999395456
9.99999404281
9.99999410577
9.9999941527
9.99999417858
9.99999419656
9.99999420513
9.99999422035
9.99999424252
9.99999428824
9.99999435676
9.99999446216
9.99999460023
9.99999478117
9.99999499762
9.99999525778
9.99999555397
9.99999589455
9.99999627184
9.99999669241
9.99999714555
9.99999763383
9.99999814345
9.99999867501
9.99999921472
9.99999976413
10.0000003113
10.0000008599
10.0000014003
10.0000019386
10.0000024685
10.0000029988
10.0000035265
10.0000040629
10.000004607
10.0000051713
10.0000057554
10.0000063709
10.0000070163
10.0000077009
10.0000084209
10.0000091825
10.0000099792
10.0000108142
10.0000116784
10.0000125725
10.0000134856
10.0000144169
10.0000153551
10.0000162977
10.0000172336
10.0000181597
10.0000190658
10.0000199491
10.0000208006
10.0000216182
10.0000223944
10.0000231279
10.0000238127
10.0000244483
10.0000250302
10.0000255585
10.00002603
10.0000264453
10.0000268022
10.0000271018
10.0000273428
10.0000275265
10.0000276523
10.0000277213
10.0000277331
10.0000276891
10.0000275897
10.000027438
10.0000272382
10.0000269938
10.0000267087
10.00002639
10.0000260741
9.999999982
9.99999993453
9.99999987944
9.99999982808
9.99999977613
9.99999971769
9.99999965059
9.99999957233
9.99999948261
9.99999937973
9.9999992638
9.99999913321
9.99999898852
9.99999882834
9.99999865379
9.99999846376
9.99999826003
9.99999804189
9.99999781188
9.99999756975
9.99999731883
9.99999705938
9.99999679541
9.99999652771
9.99999626086
9.99999599616
9.99999573841
9.9999954894
9.99999525369
9.99999503351
9.99999483253
9.9999946534
9.99999449836
9.99999437022
9.99999426953
9.99999419865
9.99999415664
9.99999414448
9.9999941604
9.99999420304
9.99999427045
9.9999943586
9.99999446563
9.99999458535
9.99999471591
9.99999484996
9.99999498577
9.99999511596
9.99999523941
9.99999534973
9.99999544735
9.99999552784
9.99999559404
9.99999564424
9.99999568419
9.99999571504
9.99999574509
9.99999577751
9.9999958217
9.99999588091
9.99999596324
9.9999960697
9.99999620537
9.99999636845
9.99999656194
9.99999678322
9.99999703531
9.9999973155
9.99999762569
9.99999796082
9.99999832013
9.99999869651
9.99999908872
9.99999949041
9.99999990188
10.0000003183
10.0000007412
10.0000011669
10.0000015979
10.0000020317
10.0000024722
10.0000029185
10.0000033756
10.000003844
10.0000043296
10.0000048333
10.0000053609
10.0000059129
10.0000064942
10.0000071042
10.0000077461
10.0000084176
10.00000912
10.0000098491
10.0000106043
10.0000113799
10.0000121736
10.000012979
10.0000137925
10.0000146073
10.0000154194
10.0000162219
10.0000170109
10.0000177801
10.000018526
10.0000192432
10.0000199288
10.0000205784
10.00002119
10.00002176
10.0000222873
10.0000227692
10.0000232053
10.0000235937
10.0000239346
10.0000242269
10.0000244711
10.0000246668
10.0000248145
10.0000249143
10.0000249666
10.0000249719
10.0000249318
10.0000248503
10.0000247274
10.0000245673
10.000024362
10.0000241692
9.99999999265
9.9999999698
9.99999994419
9.99999991202
9.99999987692
9.99999983687
9.99999979112
9.9999997385
9.99999967858
9.99999960985
9.99999953226
9.99999944418
9.99999934575
9.99999923548
9.99999911395
9.99999897996
9.99999883465
9.99999867727
9.99999850955
9.99999833126
9.99999814471
9.9999979503
9.99999775073
9.99999754722
9.99999734246
9.99999713885
9.99999693831
9.99999674509
9.9999965591
9.99999638741
9.99999622633
9.99999608686
9.99999596018
9.99999586173
9.99999577718
9.99999572532
9.99999568792
9.99999568392
9.99999569494
9.99999573568
9.99999579157
9.99999587001
9.99999596203
9.99999606796
9.9999961832
9.99999630376
9.99999642719
9.99999654805
9.99999666485
9.99999677247
9.99999687052
9.99999695521
9.99999702797
9.99999708709
9.99999713637
9.99999717655
9.99999721384
9.99999725112
9.9999972961
9.99999735226
9.99999742671
9.99999752113
9.99999763984
9.99999778144
9.99999794773
9.99999813591
9.99999834735
9.99999857899
9.99999883124
9.99999909923
9.99999938136
9.9999996717
9.99999996911
10.0000002694
10.0000005736
10.0000008796
10.0000011897
10.0000015027
10.0000018217
10.000002146
10.0000024793
10.0000028217
10.0000031773
10.0000035464
10.000003933
10.0000043377
10.000004764
10.000005212
10.0000056843
10.0000061803
10.0000067019
10.0000072472
10.000007817
10.0000084086
10.0000090213
10.0000096513
10.0000102971
10.0000109542
10.00001162
10.0000122897
10.0000129604
10.000013627
10.0000142864
10.000014934
10.0000155669
10.0000161808
10.0000167732
10.0000173406
10.000017881
10.0000183915
10.0000188707
10.0000193166
10.0000197281
10.000020104
10.0000204439
10.0000207468
10.000021013
10.000021242
10.0000214343
10.0000215897
10.0000217087
10.0000217915
10.0000218385
10.0000218526
10.0000218326
10.0000217883
10.0000216887
10.0000216471
9.99999999173
9.99999998211
9.99999996378
9.99999994937
9.99999993465
9.99999991507
9.99999988965
9.99999985784
9.99999982019
9.99999977567
9.99999972433
9.99999966519
9.99999959822
9.99999952241
9.9999994379
9.99999934388
9.99999924082
9.99999912833
9.9999990072
9.99999887772
9.99999874078
9.99999859778
9.99999844911
9.99999829812
9.9999981434
9.99999799195
9.99999783803
9.99999769534
9.99999754958
9.99999742594
9.99999729556
9.9999972012
9.99999709302
9.99999703621
9.99999695678
9.9999969416
9.99999689736
9.99999692228
9.9999969186
9.9999969772
9.9999970157
9.99999709958
9.99999717522
9.99999727654
9.99999737766
9.99999748877
9.99999760058
9.99999771227
9.99999782067
9.9999979224
9.99999801601
9.99999809874
9.99999817049
9.99999823017
9.99999827969
9.9999983203
9.99999835631
9.99999839152
9.99999843232
9.99999848399
9.99999855302
9.99999864339
9.99999875863
9.99999889895
9.99999906416
9.99999925179
9.99999946033
9.99999968635
9.99999992722
10.0000001776
10.0000004333
10.0000006887
10.0000009414
10.0000011886
10.0000014313
10.0000016692
10.0000019048
10.0000021387
10.0000023741
10.0000026119
10.0000028558
10.0000031071
10.0000033696
10.0000036447
10.0000039356
10.0000042433
10.0000045702
10.0000049165
10.0000052838
10.0000056714
10.0000060801
10.0000065084
10.0000069561
10.0000074212
10.0000079025
10.0000083975
10.0000089046
10.0000094205
10.0000099433
10.0000104695
10.000010997
10.0000115222
10.000012043
10.000012556
10.0000130592
10.0000135497
10.0000140256
10.0000144845
10.0000149249
10.0000153448
10.0000157432
10.0000161185
10.0000164703
10.0000167973
10.0000170995
10.0000173761
10.0000176274
10.0000178531
10.0000180535
10.0000182287
10.0000183792
10.0000185049
10.0000186057
10.0000186841
10.0000187342
10.0000187766
10.0000187559
10.0000188399
9.99999999922
10.0000000001
10.0000000008
9.99999999614
9.99999998951
9.99999997898
9.99999996374
9.99999994348
9.99999991838
9.99999988834
9.9999998529
9.99999981156
9.99999976407
9.99999970992
9.99999964885
9.99999958062
9.99999950496
9.99999942228
9.99999933207
9.99999923599
9.99999913253
9.99999902594
9.99999891176
9.9999987997
9.99999867814
9.99999856812
9.99999844255
9.99999834481
9.9999982177
9.99999814503
9.99999801732
9.99999798372
9.99999785562
9.99999787285
9.99999774689
9.9999978187
9.9999977041
9.99999782113
9.99999773548
9.99999787608
9.99999783923
9.99999797961
9.99999800097
9.99999812806
9.99999819821
9.99999831271
9.99999840912
9.99999851554
9.99999861607
9.99999871307
9.99999880305
9.99999888428
9.9999989555
9.99999901596
9.99999906608
9.99999910721
9.99999914226
9.99999917536
9.9999992122
9.99999925922
9.99999932325
9.99999941001
9.9999995236
9.99999966546
9.999999835
10.0000000296
10.0000002462
10.0000004801
10.0000007266
10.0000009796
10.0000012331
10.0000014812
10.0000017207
10.0000019495
10.0000021678
10.0000023765
10.0000025774
10.0000027721
10.0000029628
10.0000031517
10.0000033414
10.0000035346
10.0000037341
10.0000039423
10.0000041618
10.0000043944
10.0000046418
10.000004905
10.0000051847
10.0000054811
10.000005794
10.0000061227
10.0000064663
10.0000068233
10.0000071923
10.0000075715
10.0000079589
10.0000083525
10.00000875
10.0000091495
10.0000095488
10.0000099458
10.0000103386
10.0000107255
10.0000111046
10.0000114744
10.0000118337
10.0000121812
10.0000125158
10.0000128367
10.0000131433
10.0000134349
10.0000137113
10.000013972
10.0000142171
10.0000144465
10.0000146604
10.0000148589
10.0000150425
10.0000152112
10.0000153658
10.0000155058
10.0000156316
10.0000157446
10.0000158377
10.0000159343
10.0000159715
10.0000161273
9.9999999937
9.99999999766
9.99999999585
10.0000000008
10.0000000071
10.0000000096
10.0000000069
9.99999999861
9.99999998529
9.99999996695
9.99999994384
9.99999991537
9.99999988155
9.99999984205
9.99999979665
9.99999974543
9.9999996877
9.99999962473
9.99999955447
9.99999948101
9.9999993986
9.99999931791
9.99999922391
9.99999914214
9.99999903624
9.99999896379
9.99999884287
9.99999879622
9.99999865181
9.99999865502
9.9999984716
9.99999855561
9.99999831249
9.99999850842
9.99999818929
9.99999851288
9.99999812374
9.99999855477
9.99999814074
9.99999861333
9.99999825437
9.99999867827
9.99999845089
9.99999876171
9.99999868894
9.99999888561
9.99999892541
9.99999905302
9.99999913995
9.99999923923
9.99999932878
9.99999941162
9.99999948521
9.99999954784
9.99999959915
9.99999963947
9.99999967087
9.99999969712
9.99999972416
9.99999975967
9.99999981209
9.99999988973
9.99999999859
10.0000001422
10.00000032
10.0000005292
10.0000007645
10.0000010195
10.0000012862
10.0000015564
10.0000018218
10.0000020763
10.0000023157
10.0000025392
10.0000027489
10.0000029456
10.0000031316
10.000003308
10.0000034773
10.0000036407
10.0000038011
10.0000039603
10.0000041212
10.000004286
10.000004457
10.000004637
10.0000048277
10.0000050296
10.0000052438
10.0000054701
10.0000057085
10.0000059584
10.000006219
10.0000064891
10.0000067675
10.0000070524
10.0000073425
10.0000076357
10.0000079308
10.0000082257
10.000008519
10.0000088092
10.0000090951
10.0000093752
10.000009649
10.0000099151
10.0000101734
10.000010423
10.0000106637
10.0000108954
10.0000111179
10.0000113313
10.0000115359
10.0000117316
10.000011919
10.0000120983
10.0000122701
10.0000124344
10.0000125925
10.0000127436
10.0000128898
10.0000130286
10.0000131636
10.0000132906
10.0000134101
10.000013532
10.0000136181
10.0000137931
10.0000000006
10.0000000126
10.0000000259
10.0000000345
10.0000000422
10.0000000472
10.0000000482
10.0000000451
10.0000000377
10.0000000261
10.0000000104
9.99999999035
9.99999996535
9.99999993586
9.99999990065
9.99999986128
9.99999981501
9.99999976613
9.99999970804
9.99999965164
9.99999958061
9.99999952154
9.99999943486
9.99999938298
9.99999927355
9.99999924746
9.99999909884
9.99999913165
9.99999891087
9.99999905729
9.9999987075
9.99999904817
9.99999848789
9.99999912122
9.99999826258
9.99999927074
9.99999806831
9.99999945311
9.99999797446
9.99999959161
9.99999805875
9.99999962062
9.99999834705
9.99999955001
9.99999876516
9.99999947796
9.99999917744
9.99999950639
9.99999949608
9.99999964448
9.99999972749
9.99999982315
9.99999990621
9.99999997827
10.000000037
10.0000000818
10.0000001126
10.0000001338
10.0000001508
10.0000001725
10.000000209
10.0000002715
10.0000003689
10.0000005069
10.0000006859
10.000000903
10.0000011507
10.0000014204
10.000001701
10.000001983
10.0000022558
10.0000025141
10.0000027548
10.0000029769
10.0000031816
10.0000033715
10.0000035484
10.0000037146
10.0000038716
10.0000040214
10.0000041657
10.0000043067
10.0000044462
10.0000045866
10.0000047291
10.0000048761
10.0000050288
10.0000051885
10.0000053562
10.0000055326
10.0000057171
10.0000059094
10.0000061085
10.0000063137
10.0000065235
10.0000067369
10.0000069524
10.0000071689
10.0000073846
10.0000075987
10.0000078098
10.000008017
10.0000082193
10.0000084164
10.0000086075
10.0000087924
10.0000089711
10.0000091436
10.00000931
10.0000094707
10.0000096262
10.0000097769
10.0000099234
10.0000100663
10.0000102064
10.0000103439
10.0000104801
10.0000106147
10.0000107497
10.0000108831
10.0000110193
10.000011152
10.0000112908
10.0000114211
10.0000115605
10.0000116883
10.0000118207
10.0000119784
9.9999999938
10.0000000086
10.0000000182
10.0000000346
10.0000000524
10.0000000668
10.0000000763
10.0000000809
10.0000000808
10.0000000764
10.0000000677
10.0000000551
10.0000000375
10.0000000161
9.99999998883
9.9999999589
9.99999992084
9.99999988348
9.99999983294
9.99999979159
9.9999997251
9.99999968779
9.99999959729
9.99999958107
9.99999944795
9.99999948706
9.99999927117
9.99999943115
9.99999905281
9.99999945129
9.99999876769
9.99999959704
9.9999983834
9.99999991704
9.9999978801
10.0000004257
9.99999729311
10.0000010505
9.99999676335
10.0000015952
9.99999653867
10.0000017932
9.99999685139
10.0000014951
9.99999769795
10.0000008649
9.99999874564
10.000000311
9.99999957689
10.0000001169
10.0000000497
10.0000002146
10.0000002987
10.0000003831
10.0000004509
10.000000498
10.0000005251
10.0000005349
10.0000005323
10.0000005278
10.0000005354
10.0000005728
10.0000006527
10.0000007823
10.0000009615
10.0000011875
10.0000014531
10.0000017468
10.000002055
10.0000023613
10.000002655
10.0000029271
10.0000031732
10.0000033932
10.0000035903
10.0000037684
10.0000039309
10.0000040807
10.0000042203
10.000004352
10.0000044777
10.0000045996
10.0000047193
10.0000048386
10.0000049587
10.0000050808
10.000005206
10.0000053349
10.0000054687
10.0000056075
10.0000057521
10.0000059017
10.0000060555
10.0000062126
10.000006372
10.0000065324
10.0000066929
10.0000068522
10.0000070094
10.0000071636
10.0000073139
10.0000074598
10.0000076008
10.0000077367
10.0000078675
10.0000079933
10.0000081143
10.0000082311
10.0000083442
10.0000084543
10.0000085622
10.0000086687
10.0000087747
10.0000088809
10.0000089885
10.0000090976
10.0000092101
10.0000093248
10.0000094452
10.000009567
10.0000096983
10.0000098265
10.0000099709
10.0000101007
10.0000102594
10.0000103825
10.0000105592
10.0000106835
10.0000000014
10.0000000263
10.0000000524
10.0000000722
10.0000000903
10.0000001055
10.0000001167
10.0000001239
10.0000001271
10.0000001268
10.0000001224
10.0000001149
10.0000001025
10.0000000875
10.0000000658
10.0000000439
10.0000000113
9.99999998435
9.99999993775
9.99999991123
9.999999844
9.99999983029
9.99999972735
9.99999975331
9.99999958081
9.99999970239
9.99999938745
9.99999971694
9.99999911147
9.99999986331
9.99999868729
10.0000002433
9.99999801424
10.0000009883
9.99999697617
10.0000022141
9.99999551673
10.000003907
9.99999378606
10.0000057568
9.99999229122
10.000007076
9.99999183605
10.0000070642
9.99999303293
10.0000054817
9.99999559338
10.0000031505
9.99999828119
10.0000013919
9.99999998475
10.0000007686
10.0000006633
10.0000008119
10.0000008878
10.0000009353
10.0000009633
10.000000965
10.0000009372
10.0000008964
10.000000876
10.0000008976
10.0000009509
10.0000010129
10.000001079
10.0000011777
10.0000013465
10.0000016056
10.0000019428
10.0000023262
10.0000027172
10.0000030828
10.0000034044
10.000003677
10.0000039051
10.0000040968
10.00000426
10.0000044019
10.0000045278
10.0000046424
10.000004749
10.0000048506
10.0000049493
10.0000050469
10.0000051447
10.0000052439
10.0000053454
10.0000054495
10.000005557
10.0000056675
10.0000057816
10.0000058986
10.0000060192
10.0000061413
10.0000062638
10.000006386
10.0000065067
10.0000066254
10.000006741
10.0000068531
10.000006961
10.0000070644
10.0000071631
10.0000072572
10.0000073467
10.0000074324
10.0000075145
10.0000075941
10.0000076719
10.000007749
10.0000078263
10.0000079049
10.0000079858
10.00000807
10.0000081587
10.000008252
10.0000083521
10.000008457
10.0000085717
10.000008689
10.0000088212
10.0000089486
10.0000091015
10.0000092308
10.0000094088
10.0000095245
10.0000097406
10.0000098297
9.99999999451
10.0000000237
10.0000000475
10.0000000764
10.0000001055
10.0000001305
10.00000015
10.0000001645
10.0000001742
10.0000001799
10.0000001811
10.0000001795
10.0000001724
10.0000001638
10.0000001473
10.000000133
10.000000105
10.0000000879
10.0000000442
10.0000000315
9.99999996257
9.99999997069
9.99999985533
9.99999991976
9.99999971068
9.99999990692
9.99999950123
9.99999998601
9.99999916813
10.0000002566
9.99999859575
10.000000892
9.99999758086
10.000002165
9.99999581863
10.0000044321
9.99999296555
10.000007994
9.99998887697
10.0000127412
9.99998406414
10.0000176463
9.99998013828
10.0000205829
9.99997949618
10.0000193342
9.99998357994
10.0000137996
9.9999908121
10.0000070471
9.99999727787
10.0000027057
10.0000005071
10.0000014231
10.0000013207
10.0000013833
10.0000014378
10.0000013936
10.0000012822
10.0000012294
10.0000012952
10.0000012881
10.0000008343
9.99999971586
9.99999812597
9.99999660665
9.99999570629
9.99999570244
9.99999652655
9.99999788727
9.99999943276
10.0000008837
10.0000020866
10.000003001
10.0000036576
10.0000041143
10.0000044294
10.0000046499
10.00000481
10.0000049336
10.0000050367
10.0000051291
10.0000052156
10.0000052975
10.0000053744
10.0000054459
10.0000055127
10.0000055765
10.0000056405
10.0000057075
10.0000057802
10.0000058598
10.0000059471
10.000006041
10.0000061403
10.0000062408
10.0000063404
10.0000064371
10.0000065296
10.0000066168
10.0000066983
10.0000067739
10.0000068441
10.0000069093
10.0000069705
10.0000070285
10.0000070845
10.0000071395
10.0000071949
10.0000072518
10.0000073114
10.0000073748
10.0000074433
10.0000075174
10.0000075988
10.0000076869
10.0000077846
10.0000078884
10.0000080052
10.0000081244
10.000008263
10.0000083934
10.0000085577
10.0000086882
10.0000088848
10.0000089936
10.0000092423
10.0000093018
10.0000000027
10.000000044
10.0000000855
10.0000001188
10.000000149
10.0000001754
10.0000001973
10.0000002151
10.0000002283
10.0000002383
10.0000002436
10.0000002469
10.0000002441
10.0000002412
10.0000002292
10.0000002215
10.000000198
10.000000189
10.0000001491
10.0000001466
10.00000008
10.0000001014
9.99999998521
10.0000000679
9.9999998515
10.000000076
9.99999964775
10.000000185
9.999999304
10.0000005131
9.99999867183
10.0000012884
9.9999974576
10.0000029281
9.99999513306
10.0000061228
9.99999087809
10.0000118209
9.99998372395
10.0000208731
9.99997321092
10.0000330083
9.99996076618
10.0000452799
9.99995103968
10.0000515888
9.9999507372
10.0000461071
9.99996295434
10.0000300305
9.99998163124
10.0000130709
9.99999588578
10.0000039635
10.0000012159
10.0000020448
10.0000020252
10.0000016144
10.0000016025
10.0000023829
10.0000026727
9.99999931827
9.99998938801
9.99997293552
9.99995384727
9.99993786572
9.99992945406
9.99993003669
9.99993811285
9.99995056773
9.99996414261
9.99997643297
9.99998622262
9.99999329673
9.9999980351
10.00000103
10.0000028441
10.0000039092
10.0000045169
10.0000048511
10.0000050281
10.0000051269
10.0000052041
10.0000052986
10.0000054309
10.0000056034
10.000005804
10.0000060131
10.0000062099
10.0000063777
10.0000065069
10.0000065953
10.0000066464
10.0000066683
10.0000066693
10.0000066601
10.0000066453
10.0000066303
10.0000066189
10.0000066134
10.0000066147
10.000006623
10.0000066378
10.0000066586
10.0000066846
10.0000067154
10.0000067507
10.0000067904
10.0000068347
10.000006884
10.0000069388
10.0000069998
10.0000070678
10.0000071429
10.000007227
10.0000073186
10.0000074214
10.0000075303
10.0000076542
10.000007779
10.0000079267
10.0000080618
10.0000082375
10.0000083693
10.0000085819
10.0000086841
10.0000089575
10.000008992
9.99999999601
10.0000000425
10.0000000828
10.0000001262
10.0000001683
10.0000002054
10.0000002366
10.0000002626
10.0000002832
10.0000003
10.0000003117
10.0000003211
10.0000003241
10.0000003272
10.0000003209
10.0000003193
10.000000302
10.0000002988
10.0000002663
10.0000002684
10.0000002123
10.0000002339
10.0000001358
10.0000002074
10.0000000271
10.0000002133
9.99999986135
10.0000003019
9.99999957988
10.0000005777
9.99999904708
10.000001261
9.99999796313
10.0000028071
9.99999570038
10.0000061161
9.99999104896
10.0000128073
9.99998196708
10.0000253324
9.99996578632
10.0000462088
9.99994084608
10.0000752471
9.99991045506
10.0001048471
9.99988710441
10.0001183975
9.99988881128
10.0001011169
9.99992161147
10.0000595678
9.99996617688
10.0000208706
9.99999496876
10.0000050574
10.0000013825
10.0000010608
10.0000057059
10.0000087666
9.99999075623
9.99992715176
9.99980738628
9.99964844918
9.99949076533
9.99937774006
9.99933507664
9.99936434355
9.99944796745
9.99955996038
9.99967555708
9.99977738733
9.99985716953
9.99991405954
9.9999515945
9.99997484322
9.99998857128
9.99999644511
10.0000009284
10.0000034931
10.00000492
10.0000055788
10.0000056479
10.000005254
10.0000045372
10.000003658
10.0000027762
10.0000020241
10.0000014882
10.0000012056
10.000001171
10.0000013492
10.0000016895
10.0000021375
10.0000026434
10.0000031658
10.0000036756
10.0000041497
10.0000045755
10.0000049483
10.0000052682
10.0000055384
10.0000057642
10.0000059516
10.000006107
10.0000062364
10.0000063457
10.00000644
10.000006524
10.0000066015
10.0000066765
10.0000067513
10.0000068294
10.0000069115
10.0000070014
10.000007097
10.0000072047
10.0000073166
10.000007446
10.0000075731
10.0000077276
10.000007863
10.0000080476
10.0000081756
10.0000084001
10.0000084905
10.0000087812
10.0000087876
10.0000000046
10.0000000638
10.0000001222
10.0000001702
10.0000002139
10.0000002531
10.0000002874
10.0000003175
10.0000003427
10.0000003647
10.0000003816
10.0000003963
10.0000004049
10.0000004133
10.0000004132
10.0000004165
10.0000004065
10.000000407
10.0000003847
10.0000003866
10.0000003471
10.0000003595
10.0000002925
10.0000003334
10.0000002167
10.0000003236
10.000000108
10.0000003612
9.99999993504
10.0000005116
9.99999961659
10.0000009209
9.99999895021
10.0000019245
9.99999744556
10.0000042927
9.99999396439
10.0000097312
9.99998604989
10.0000217153
9.99996901952
10.0000462516
9.9999357946
10.0000907134
9.99988043254
10.0001568432
9.99980917948
10.0002265868
9.99975400776
10.0002562538
9.99976174369
10.0002099197
9.99984264287
10.0001099012
9.9999455608
10.0000266116
9.99998964023
10.0000154327
10.0000353011
9.99995769344
9.99963635001
9.99895879332
9.99795062377
9.99680494998
9.99580892343
9.99520512485
9.99509514219
9.99543778634
9.9960978999
9.99690800778
9.99771728015
9.99842220309
9.99897406622
9.99936912017
9.99963091386
9.99979316045
9.99988804089
9.99994086916
9.99996932667
9.99998480484
9.9999941365
10.000001029
10.0000071342
10.0000128648
10.0000180183
10.0000222182
10.0000251732
10.0000267828
10.0000271357
10.0000264534
10.0000250199
10.0000231214
10.0000210074
10.0000188713
10.0000168469
10.0000150155
10.0000134156
10.0000120572
10.0000109262
10.0000099998
10.0000092511
10.0000086524
10.0000081778
10.0000078045
10.0000075133
10.0000072885
10.0000071176
10.0000069908
10.0000069011
10.0000068422
10.0000068111
10.000006803
10.0000068183
10.0000068513
10.0000069064
10.000006974
10.000007065
10.0000071612
10.0000072857
10.0000074022
10.0000075595
10.0000076834
10.0000078756
10.0000079849
10.0000082205
10.0000082776
10.0000085824
10.0000085303
9.99999999807
10.0000000628
10.0000001205
10.0000001787
10.0000002341
10.0000002843
10.0000003283
10.0000003671
10.0000004005
10.0000004299
10.0000004541
10.0000004755
10.0000004911
10.0000005054
10.0000005128
10.000000521
10.0000005197
10.0000005233
10.0000005125
10.0000005136
10.0000004917
10.0000004944
10.0000004581
10.0000004701
10.0000004127
10.0000004486
10.0000003545
10.0000004439
10.0000002772
10.0000004842
10.0000001562
10.0000006311
9.99999991509
10.0000010357
9.99999933111
10.0000020929
9.99999777575
10.0000048585
9.99999354895
10.0000120896
9.99998232973
10.0000304282
9.99995434877
10.0000735684
9.99989183087
10.0001622113
9.99977499065
10.0003077472
9.99961222184
10.0004694576
9.99948352242
10.0005361249
9.99950263936
10.0004288743
9.99969529726
10.0001659038
9.99994683538
10.0001525569
9.99987028273
9.99857175829
9.99555610225
9.99060793903
9.9843310223
9.97802775261
9.97318413254
9.97079493495
9.9710649508
9.97357466382
9.97756852486
9.98221145818
9.98677280428
9.9907497
9.99389701068
9.99618709099
9.9977339776
9.99871292013
9.99929854285
9.9996315766
9.99981077247
9.99989950151
9.99993675725
9.99994649347
9.99994358186
9.99993706994
9.99993197791
9.9999304978
9.99993296702
9.99993868006
9.99994650902
9.99995531279
9.99996415711
9.99997239248
9.99997964392
9.99998575726
9.99999073334
9.99999466754
9.99999770242
9.99999999438
10.0000016948
10.0000029332
10.000003822
10.0000044517
10.0000048938
10.0000052023
10.0000054187
10.0000055726
10.0000056872
10.0000057768
10.0000058554
10.0000059275
10.0000060037
10.000006081
10.0000061715
10.0000062633
10.0000063758
10.0000064834
10.0000066208
10.000006739
10.0000069021
10.0000070191
10.0000072085
10.0000073037
10.000007522
10.0000075618
10.000007818
10.0000077486
10.0000080689
10.0000078117
10.0000000066
10.0000000841
10.0000001592
10.0000002218
10.0000002787
10.0000003308
10.0000003781
10.0000004213
10.0000004598
10.0000004947
10.0000005249
10.0000005521
10.0000005743
10.0000005942
10.0000006086
10.0000006219
10.0000006287
10.000000636
10.0000006353
10.0000006375
10.0000006294
10.0000006282
10.0000006131
10.0000006109
10.0000005892
10.0000005898
10.0000005619
10.0000005717
10.0000005365
10.0000005667
10.0000005166
10.0000005926
10.0000004971
10.0000006883
10.0000004369
10.0000009588
10.0000001707
10.0000017355
9.99999912062
10.0000041067
9.99999533904
10.0000116129
9.99998259038
10.0000350693
9.99994288453
10.0001030427
9.99983412983
10.0002713921
9.99959420928
10.0005875024
9.99922750131
10.0009538548
9.99893434518
10.0011310645
9.9988940159
10.0008950002
9.99981398952
10.000039893
9.99546433534
9.98485322281
9.96586664758
9.93955616752
9.9101529456