/*--------------------------------*- C++ -*----------------------------------*\
  =========                 |
  \\      /  F ield         | OpenFOAM: The Open Source CFD Toolbox
   \\    /   O peration     | Website:  https://openfoam.org
    \\  /    A nd           | Version:  7
     \\/     M anipulation  |
\*---------------------------------------------------------------------------*/
FoamFile
{
    version     2.0;
    format      ascii;
    class       volScalarField;
    location    "1140";
    object      p;
}
// * * * * * * * * * * * * * * * * * * * * * * * * * * * * * * * * * * * * * //

dimensions      [0 2 -2 0 0 0 0];

internalField   nonuniform List<scalar> 
8192
(
0.000649432227403
0.000477895009193
0.000392311141586
0.000348241891251
0.000323265552945
0.000308076267308
0.000298253000578
0.000291549615681
0.000286758573252
0.000283195748906
0.000280453989418
0.000278279730844
0.000276508496688
0.000275029721182
0.000273766758649
0.000272665065561
0.000271684949099
0.000270796961817
0.000269978882639
0.000269213680214
0.000268488102019
0.000267791673263
0.000267115969666
0.000266454077573
0.000265800183264
0.000265149253072
0.000264496776236
0.000263838551889
0.000263170506095
0.00026248852837
0.000261788318041
0.000261065234589
0.000260314145682
0.000259529269283
0.000258704005418
0.000257830756026
0.000256900730842
0.000255903740894
0.000254827981741
0.000253659813727
0.00025238354879
0.00025098126053
0.000249432638303
0.00024771491452
0.00024580289823
0.000243669154057
0.000241284363604
0.000238617902784
0.000235638653079
0.000232316045777
0.000228621309137
0.000224528862495
0.000220017776353
0.000215073207956
0.000209687721367
0.000203862414855
0.000197607790678
0.000190944315992
0.00018390262889
0.000176523351484
0.000168856471063
0.000160960243621
0.000152899561465
0.000144743757546
0.000136563930548
0.000128430064775
0.000120408367108
0.000112559221322
0.000104935981507
9.75845637279e-05
9.05435832319e-05
8.38447276895e-05
7.75131200164e-05
7.15675456482e-05
6.60205305955e-05
6.08783388388e-05
5.6140995048e-05
5.18024422479e-05
4.78509133002e-05
4.42695499777e-05
4.10372495472e-05
3.81296772065e-05
3.55203545905e-05
3.31817311431e-05
3.10861559567e-05
2.92066938823e-05
2.75177558096e-05
2.59955403059e-05
2.46183009491e-05
2.33664670665e-05
2.22226485581e-05
2.11715570463e-05
2.01998704419e-05
1.92960648516e-05
1.84502307956e-05
1.76538874795e-05
1.68998030996e-05
1.61818274301e-05
1.54947389365e-05
1.48341083444e-05
1.41961779765e-05
1.35777567466e-05
1.29761289573e-05
1.23889760556e-05
1.18143092538e-05
1.12504120649e-05
1.06957908371e-05
1.01491324877e-05
9.60926785409e-06
9.07514011108e-06
8.54577707263e-06
8.02026716021e-06
7.49773837882e-06
6.97734063981e-06
6.45823167952e-06
5.93956814561e-06
5.42050416758e-06
4.90020224491e-06
4.37786441568e-06
3.8527983059e-06
3.32454382475e-06
2.79310846416e-06
2.25940243633e-06
1.72605609958e-06
1.19900732332e-06
6.90756347985e-07
2.28366237874e-07
-5.31282760162e-08
0.000500505865342
0.000437004749143
0.000387343507544
0.00035472871115
0.00033284632729
0.000317702307118
0.000306915857563
0.000299021027089
0.000293092121419
0.00028853067525
0.000284940741226
0.000282054344806
0.000279686100223
0.000277705064582
0.00027601694234
0.000274552607435
0.000273260549026
0.000272101799015
0.000271046458408
0.000270071273159
0.00026915791094
0.000268291714469
0.000267460783484
0.000266655287001
0.000265866938283
0.000265088586353
0.000264313890233
0.000263537052714
0.000262752597005
0.000261955172917
0.000261139381636
0.000260299612062
0.000259429882134
0.000258523680945
0.000257573807567
0.000256572204848
0.000255509786697
0.000254376260229
0.000253159945167
0.000251847596829
0.000250424241282
0.000248873036632
0.00024717517791
0.000245309869162
0.000243254389497
0.000240984283939
0.000238473708334
0.000235695953946
0.00023262416508
0.000229232247149
0.000225495939172
0.000221394002782
0.000216909459437
0.000212030799035
0.000206753083303
0.000201078878794
0.000195018965397
0.00018859277703
0.000181828536147
0.0001747630519
0.000167441156133
0.000159914748736
0.000152241409948
0.000144482551462
0.000136701162466
0.000128959371002
0.000121316179277
0.000113825708514
0.000106536140667
9.94893206317e-05
9.27208030519e-05
8.62600910479e-05
8.01308742795e-05
7.43511729925e-05
6.89333812852e-05
6.38842643834e-05
5.92049928068e-05
5.48912980988e-05
5.0933810511e-05
4.73186027969e-05
4.40279217208e-05
4.10410555062e-05
3.83352635636e-05
3.58866921776e-05
3.36712091963e-05
3.16651116692e-05
2.98456816812e-05
2.8191587122e-05
2.66831381743e-05
2.53024207835e-05
2.40333312875e-05
2.28615376314e-05
2.17743891188e-05
2.07607941166e-05
1.98110800878e-05
1.8916847593e-05
1.80708256213e-05
1.72667339298e-05
1.64991550649e-05
1.57634181331e-05
1.50554944309e-05
1.43719051657e-05
1.37096402257e-05
1.30660874732e-05
1.24389711634e-05
1.18262987683e-05
1.12263148473e-05
1.06374613185e-05
1.00583429912e-05
9.48769791871e-06
8.92437176162e-06
8.36729603979e-06
7.81546994745e-06
7.26794616253e-06
6.72382116961e-06
6.18223166073e-06
5.64235929211e-06
5.1034479603e-06
4.56483997661e-06
4.02604169865e-06
3.48683529506e-06
2.94746388258e-06
2.4089344067e-06
1.87351296038e-06
1.34554047111e-06
8.32833326497e-07
3.48544488016e-07
-2.35658120094e-10
0.000417525415578
0.000394875724067
0.000368911830963
0.00034770834785
0.000331623056856
0.000319344368419
0.000309851391122
0.000302415735348
0.000296515039042
0.000291770009501
0.000287902404018
0.000284706308696
0.000282028045024
0.000279751924823
0.000277790076991
0.000276075143126
0.000274555003654
0.000273188945547
0.000271944856135
0.000270797150924
0.000269725228631
0.00026871230788
0.000267744541274
0.000266810333049
0.000265899806174
0.000265004380699
0.000264116432859
0.000263229014766
0.000262335619493
0.000261429978545
0.000260505881019
0.000259557008172
0.000258576776809
0.000257558187768
0.000256493675362
0.00025537495642
0.000254192877222
0.000252937259707
0.000251596748571
0.000250158664814
0.000248608872412
0.000246931669994
0.000245109721529
0.000243124045995
0.000240954088121
0.000238577896791
0.000235972436224
0.000233114053191
0.000229979112687
0.000226544801272
0.000222790075345
0.000218696711606
0.000214250396802
0.000209441786502
0.000204267463483
0.000198730739906
0.00019284225875
0.000186620359987
0.000180091179095
0.000173288454884
0.000166253032496
0.00015903204657
0.000151677739678
0.000144245856737
0.000136793622536
0.000129377496244
0.000122051074485
0.000114863492928
0.000107858515091
0.000101074253297
9.45432766384e-05
8.82928508904e-05
8.23451381006e-05
7.67172881724e-05
7.14214318024e-05
6.64646347003e-05
6.18488930817e-05
5.75712493163e-05
5.36240816689e-05
4.99955880453e-05
4.66704434973e-05
4.36305813355e-05
4.085602819e-05
3.83257231398e-05
3.6018260879e-05
3.39125196677e-05
3.19881540253e-05
3.02259516141e-05
2.86080650024e-05
2.71181378744e-05
2.57413465521e-05
2.44643787581e-05
2.3275367791e-05
2.21637985139e-05
2.11203968306e-05
2.01370125652e-05
1.92065017096e-05
1.83226131118e-05
1.7479881812e-05
1.66735311557e-05
1.58993838186e-05
1.51537823281e-05
1.44335182548e-05
1.3735769965e-05
1.30580477867e-05
1.23981462464e-05
1.17541022365e-05
1.11241587724e-05
1.05067333692e-05
9.90039082409e-06
9.30381970336e-06
8.71581255111e-06
8.13524950571e-06
7.56108573491e-06
6.99234298909e-06
6.42810641147e-06
5.86752799235e-06
5.30983922856e-06
4.75437645123e-06
4.20062424265e-06
3.64828457676e-06
3.09738314908e-06
2.54842975008e-06
2.00265787228e-06
1.46237757117e-06
9.31404066079e-07
4.14759479948e-07
1.43858040325e-08
0.000372930504146
0.00036456705013
0.000350403681416
0.000336641268745
0.000325241212284
0.000315991390773
0.000308438388945
0.000302213649463
0.000297038917425
0.000292701603243
0.000289035953918
0.000285910911525
0.000283222018403
0.000280885630364
0.00027883454516
0.000277014597019
0.000275381968016
0.000273901056249
0.000272542783863
0.000271283253851
0.00027010268246
0.000268984548791
0.000267914914617
0.000266881877488
0.000265875127552
0.000264885585852
0.000263905103053
0.000262926206482
0.000261941885428
0.000260945403577
0.000259930130738
0.000258889388851
0.000257816307208
0.000256703683386
0.000255543846764
0.000254328522947
0.000253048697885
0.000251694482223
0.000250254977331
0.000248718146929
0.000247070700021
0.000245297994444
0.000243383973262
0.000241311150912
0.000239060669404
0.000236612448943
0.000233945458106
0.000231038127285
0.000227868920958
0.00022441707093
0.000220663451729
0.000216591556768
0.000212188512974
0.000207446062529
0.000202361444357
0.00019693812469
0.00019118634181
0.000185123437606
0.000178773947356
0.000172169427228
0.000165348018124
0.000158353746643
0.000151235509922
0.000144045627575
0.000136837894039
0.000129665313402
0.000122577970753
0.000115621472312
0.000108836174838
0.000102257104082
9.59142305988e-05
8.9832801033e-05
8.4033555663e-05
7.85327885297e-05
7.33422832531e-05
6.84691999689e-05
6.39160046526e-05
5.96805257663e-05
5.57561953015e-05
5.21324926081e-05
4.87955674854e-05
4.57289867693e-05
4.29145308331e-05
4.03329676366e-05
3.79647458971e-05
3.57905712091e-05
3.37918501498e-05
3.19510055164e-05
3.02516766591e-05
2.86788251368e-05
2.72187666512e-05
2.58591493288e-05
2.45888949987e-05
2.3398117341e-05
2.22780270448e-05
2.12208318438e-05
2.02196364998e-05
1.92683465114e-05
1.83615775013e-05
1.74945717165e-05
1.6663121938e-05
1.58635030567e-05
1.50924108498e-05
1.4346907705e-05
1.36243745595e-05
1.29224686412e-05
1.22390862613e-05
1.15723302618e-05
1.09204814706e-05
1.02819738724e-05
9.65537302005e-06
9.03935755945e-06
8.43270363024e-06
7.83427225903e-06
7.24299984388e-06
6.65789223505e-06
6.07802304415e-06
5.50253736421e-06
4.93066250323e-06
4.36172829444e-06
3.79520073305e-06
3.23073486028e-06
2.66825559919e-06
2.1080767085e-06
1.55104886438e-06
9.98583887558e-07
4.51713721665e-07
1.68948173033e-08
0.00034526863906
0.000343331463253
0.000335562844061
0.000326397931904
0.000318141272938
0.000311129858715
0.000305206503394
0.000300165810029
0.000295839433572
0.000292097725617
0.000288839457103
0.000285983411814
0.000283462981601
0.000281222782563
0.000279216417041
0.000277404863658
0.000275755228223
0.000274239725169
0.00027283482513
0.000271520534187
0.000270279782725
0.000269097907558
0.000267962213241
0.000266861600468
0.000265786250424
0.000264727356916
0.00026367689283
0.000262627408456
0.000261571856405
0.000260503434393
0.00025941544156
0.000258301145199
0.000257153654298
0.000255965797303
0.000254730001654
0.000253438173685
0.000252081577737
0.000250650714647
0.000249135200492
0.000247523648443
0.000245803558178
0.000243961220449
0.000241981647401
0.000239848543795
0.000237544338475
0.000235050300277
0.000232346765141
0.000229413501341
0.000226230233315
0.000222777331312
0.000219036651688
0.000214992486267
0.000210632554261
0.000205948958863
0.000200939037692
0.000195606059996
0.000189959745793
0.000184016587732
0.000177799946456
0.00017133989624
0.000164672834635
0.000157840887785
0.000150891054142
0.000143873882247
0.000136841494864
0.000129845129326
0.000122932802393
0.000116147695133
0.000109527536273
0.000103104799177
9.69072287444e-05
9.09583169741e-05
8.52775605784e-05
7.98804914815e-05
7.47785440072e-05
6.99788566671e-05
6.54841183379e-05
6.12925575823e-05
5.73981398012e-05
5.37909908941e-05
5.04580179289e-05
4.73836606897e-05
4.45506899159e-05
4.19409722783e-05
3.95361413767e-05
3.73181407559e-05
3.52696291084e-05
3.33742563119e-05
3.16168289825e-05
2.99833885695e-05
2.84612242237e-05
2.70388402271e-05
2.57058936868e-05
2.44531148107e-05
2.327221846e-05
2.21558133223e-05
2.10973126792e-05
2.00908495076e-05
1.91311972742e-05
1.82136972882e-05
1.73341927031e-05
1.64889691703e-05
1.56747017019e-05
1.48884074089e-05
1.41274035104e-05
1.33892701958e-05
1.26718177442e-05
1.19730575143e-05
1.12911762939e-05
1.0624513699e-05
9.97154223112e-06
9.33084978556e-06
8.70112435881e-06
8.08114088405e-06
7.46975012111e-06
6.86586973706e-06
6.26847779984e-06
5.67660923245e-06
5.08935610158e-06
4.50587330045e-06
3.92539206883e-06
3.34724494426e-06
2.77090564061e-06
2.19603989768e-06
1.62252328815e-06
1.05022466021e-06
4.77937746769e-07
1.75013808782e-08
0.000326882181965
0.000327816380089
0.000323808323069
0.000317702319157
0.000311631113722
0.000306216862874
0.000301510238831
0.000297416409403
0.000293828821566
0.000290659021826
0.000287837666903
0.000285309961237
0.000283031453394
0.000280965133199
0.000279079578933
0.00027734777307
0.000275746306237
0.000274254799726
0.000272855452962
0.000271532667308
0.000270272721528
0.000269063486461
0.000267894171975
0.000266755101886
0.000265637513254
0.000264533379207
0.000263435244792
0.000262336080754
0.000261229153451
0.00026010790291
0.000258965828337
0.00025779637929
0.000256592850262
0.000255348276861
0.000254055331848
0.000252706219804
0.000251292569382
0.000249805322946
0.000248234623959
0.000246569703993
0.000244798772719
0.000242908916956
0.000240886018054
0.000238714701464
0.000236378337538
0.000233859118537
0.000231138241614
0.000228196229703
0.000225013417867
0.000221570619341
0.000217849960619
0.000213835842416
0.000209515951434
0.000204882232187
0.000199931739069
0.000194667324024
0.000189098148885
0.000183240014493
0.000177115471619
0.00017075367687
0.00016419002593
0.000157465656548
0.000150626780139
0.000143723505352
0.000136807759259
0.000129930443629
0.000123138690108
0.000116474096186
0.000109972310691
0.000103663626499
9.75738519035e-05
9.17249683773e-05
8.61354295317e-05
8.08201482478e-05
7.57902748985e-05
7.10528914745e-05
6.66107562533e-05
6.24622176364e-05
5.86013729704e-05
5.50184916082e-05
5.1700663666e-05
4.8632592322e-05
4.57974285492e-05
4.31775558814e-05
4.075525985e-05
3.85132502246e-05
3.64350327057e-05
3.45051460707e-05
3.27092898702e-05
3.10343698543e-05
2.94684855716e-05
2.80008803039e-05
2.66218685009e-05
2.53227517753e-05
2.40957308678e-05
2.29338185472e-05
2.18307563498e-05
2.07809369169e-05
1.97793326442e-05
1.88214309468e-05
1.79031759274e-05
1.70209161809e-05
1.61713582045e-05
1.53515249783e-05
1.45587191306e-05
1.3790490253e-05
1.30446058291e-05
1.2319025399e-05
1.16118775062e-05
1.09214391232e-05
1.02461171879e-05
9.58443202135e-06
8.93500234917e-06
8.29653178013e-06
7.66779657695e-06
7.04763471077e-06
6.43493624589e-06
5.82863535589e-06
5.2277044945e-06
4.63115166702e-06
4.03802198779e-06
3.44740427259e-06
2.85843967859e-06
2.27031494271e-06
1.68217602117e-06
1.09277631143e-06
4.99484016292e-07
1.85544113565e-08
0.000313971545768
0.00031614157919
0.000314382006598
0.000310393499172
0.000305928302707
0.000301704340954
0.000297911645117
0.000294545084737
0.000291547649243
0.000288859175632
0.000286428838782
0.000284215970768
0.000282188016134
0.000280318366573
0.000278584717219
0.000276967945988
0.000275451374506
0.000274020275783
0.000272661532145
0.000271363382173
0.000270115220292
0.000268907428445
0.000267731228512
0.000266578549388
0.000265441905297
0.000264314285196
0.000263189044066
0.000262059802486
0.000260920356191
0.000259764586207
0.000258586371801
0.000257379505003
0.000256137605361
0.000254854033634
0.000253521803158
0.000252133487747
0.000250681125115
0.000249156115211
0.00024754911336
0.000245849919073
0.000244047362856
0.000242129195638
0.000240081988784
0.000237891057436
0.000235540426093
0.000233012862793
0.00023029001561
0.000227352690161
0.000224181305131
0.000220756549734
0.00021706023879
0.000213076319836
0.000208791943883
0.000204198488163
0.000199292434804
0.000194076062604
0.000188557962742
0.000182753389984
0.000176684401514
0.000170379710993
0.000163874308211
0.000157209051599
0.000150430259813
0.00014358876756
0.000136737691091
0.000129928955528
0.000123209861243
0.000116621062533
0.000110196459117
0.000103964366848
9.79488513119e-05
9.21705927709e-05
8.66472075474e-05
8.13931649267e-05
7.64194472186e-05
7.17331063215e-05
6.73368831113e-05
6.32290347773e-05
5.94034602582e-05
5.5850143341e-05
5.25558618195e-05
4.95050574674e-05
4.66807412894e-05
4.40653240365e-05
4.16413002979e-05
3.93917575298e-05
3.73007155716e-05
3.5353322471e-05
3.3535940034e-05
3.18361516148e-05
3.02427194309e-05
2.87455121957e-05
2.73354177961e-05
2.60042508172e-05
2.47446610531e-05
2.355004657e-05
2.24144731863e-05
2.13326011258e-05
2.02996189479e-05
1.93111844577e-05
1.83633721054e-05
1.74526262842e-05
1.65757199188e-05
1.57297177438e-05
1.49119437147e-05
1.41199520326e-05
1.33515013164e-05
1.26045314963e-05
1.18771430545e-05
1.11675782672e-05
1.04742041459e-05
9.79549680406e-06
9.13002700732e-06
8.47644670193e-06
7.83347635756e-06
7.19989301887e-06
6.57451903976e-06
5.95621157355e-06
5.34385298318e-06
4.73634229935e-06
4.13258731993e-06
3.53149488623e-06
2.93195057462e-06
2.33276195067e-06
1.73249856937e-06
1.12908617391e-06
5.18960103893e-07
2.12164099963e-08
0.000304494989847
0.000307136042103
0.000306729183814
0.000304225106221
0.000300976107618
0.000297678737304
0.000294599449162
0.00029180125292
0.000289270324574
0.000286971457173
0.000284868527714
0.000282930435082
0.000281131751079
0.00027945180505
0.000277873548504
0.000276382605536
0.000274966573715
0.000273614535447
0.000272316721081
0.000271064273551
0.000269849078041
0.000268663632282
0.000267500941913
0.000266354431387
0.000265217865313
0.000264085276083
0.000262950891962
0.000261809067957
0.000260654224009
0.000259480779922
0.000258283090186
0.000257055377709
0.000255791665447
0.000254485704925
0.000253130900502
0.000251720228275
0.000250246148421
0.000248700510011
0.000247074447521
0.000245358269012
0.000243541337066
0.000241611945659
0.000239557199413
0.000237362906778
0.000235013505767
0.000232492050256
0.000229780295209
0.000226858928056
0.000223707995512
0.000220307563284
0.000216638613723
0.000212684133656
0.000208430285054
0.000203867515195
0.000198991483036
0.0001938037599
0.000188312351046
0.000182532086346
0.000176484810336
0.000170199220242
0.000163710404406
0.000157059497032
0.000150293658791
0.000143465555736
0.000136630947304
0.000129844233746
0.000123153914273
0.000116600171563
0.00011021526694
0.000104025574777
9.8053527592e-05
9.23186876484e-05
8.68380452263e-05
8.16258271557e-05
7.66930021579e-05
7.20466615308e-05
6.76894826778e-05
6.36194555394e-05
5.98299794354e-05
5.63103497931e-05
5.30465649038e-05
5.00223152433e-05
4.72199955985e-05
4.46216065414e-05
4.22094660884e-05
3.99667087432e-05
3.78775899544e-05
3.5927635032e-05
3.41036763022e-05
3.23938175751e-05
3.07873562944e-05
2.92746848879e-05
2.78471853067e-05
2.64971252292e-05
2.52175605306e-05
2.4002246214e-05
2.28455564549e-05
2.17424136211e-05
2.06882256331e-05
1.96788308938e-05
1.87104499071e-05
1.77796427822e-05
1.68832718299e-05
1.60184685837e-05
1.51826046054e-05
1.43732655597e-05
1.35882280588e-05
1.28254388846e-05
1.20829961968e-05
1.13591324236e-05
1.06521985215e-05
9.96064936343e-06
9.28302999781e-06
8.61796258741e-06
7.96413382171e-06
7.32028265743e-06
6.68518821898e-06
6.05765770018e-06
5.43651393104e-06
4.82058184727e-06
4.20867181785e-06
3.59955468678e-06
2.99191598068e-06
2.38426066696e-06
1.77470947566e-06
1.16058910707e-06
5.37730905029e-07
2.61534043386e-08
0.000297288536343
0.00030004475609
0.000300450626144
0.000298991030509
0.00029667371572
0.000294116722877
0.000291614389305
0.000289275099207
0.000287120318968
0.000285137515936
0.000283304256464
0.000281597794496
0.000279998177331
0.000278488741144
0.000277055707353
0.000275687576546
0.000274374570716
0.000273108190606
0.000271880886334
0.000270685818837
0.000269516687739
0.000268367605207
0.000267233000581
0.000266107544968
0.000264986090515
0.000263863614411
0.000262735166676
0.000261595819688
0.000260440623391
0.000259264556779
0.000258062477961
0.00025682907176
0.000255558793938
0.00025424581094
0.000252883934043
0.000251466546579
0.000249986522836
0.000248436137112
0.000246806961521
0.000245089751428
0.000243274318323
0.00024134939159
0.000239302473878
0.000237119699945
0.000234785717072
0.000232283616433
0.00022959495901
0.000226699953541
0.000223577851626
0.000220207616156
0.00021656888279
0.000212643166112
0.000208415178046
0.00020387406803
0.000199014417469
0.000193836944191
0.000188349022445
0.000182565137342
0.000176507174959
0.000170204235137
0.000163691964803
0.000157012191857
0.000150213503566
0.000143351517718
0.000136486331735
0.000129676554294
0.000122972991417
0.000116415657236
0.000110035034505
0.00010385542094
9.78976659274e-05
9.21803920508e-05
8.67201868202e-05
8.15312586285e-05
7.6624746413e-05
7.20078764423e-05
6.76832319738e-05
6.36483614553e-05
5.98958527763e-05
5.64138924538e-05
5.3187215658e-05
5.0198264745e-05
4.7428349505e-05
4.48586449861e-05
4.24709403861e-05
4.02481263667e-05
3.81744568169e-05
3.6235641444e-05
3.44188258923e-05
3.27125058809e-05
3.11064089959e-05
2.95913659439e-05
2.81591841986e-05
2.68025307233e-05
2.55148266709e-05
2.42901546175e-05
2.31231777856e-05
2.20090700748e-05
2.09434556227e-05
1.99223565494e-05
1.8942147723e-05
1.79995174471e-05
1.70914331863e-05
1.62151115139e-05
1.53679916439e-05
1.45477119548e-05
1.37520890474e-05
1.29790989003e-05
1.22268597853e-05
1.14936166118e-05
1.07777264364e-05
1.00776448723e-05
9.39191318059e-06
8.71914580845e-06
8.05801816804e-06
7.40725440526e-06
6.76561486433e-06
6.13188278118e-06
5.50484938945e-06
4.88329580979e-06
4.26596837171e-06
3.65154038682e-06
3.03854614391e-06
2.4252595974e-06
1.8094703417e-06
1.18809456571e-06
5.56592327378e-07
3.37982952954e-08
0.000291656270955
0.000294365630731
0.000295255242757
0.000294530731187
0.000292929009584
0.000290970591014
0.000288945720177
0.000286987987974
0.000285145011384
0.000283423675866
0.000281814312001
0.000280302199975
0.000278872466112
0.000277511830045
0.000276208970964
0.000274954356878
0.00027373991481
0.000272558697068
0.000271404597155
0.000270272125488
0.000269156238564
0.000268052210551
0.000266955536389
0.000265861857134
0.000264766903926
0.00026366644649
0.000262556247937
0.000261432024368
0.000260289408139
0.000259123908847
0.000257930872626
0.000256705438641
0.000255442491635
0.000254136609329
0.000252782003337
0.000251372452037
0.00024990122363
0.000248360987307
0.00024674371034
0.000245040538831
0.000243241660401
0.000241336148353
0.000239311789752
0.00023715490514
0.000234850176618
0.00023238051467
0.000229727012572
0.000226869057913
0.000223784686416
0.000220451260124
0.000216846512598
0.000212949916741
0.000208744211006
0.000204216825046
0.000199360965215
0.000194176304405
0.000188669476091
0.000182854627884
0.000176753911949
0.000170397289794
0.000163821438894
0.000157069150716
0.000150190828443
0.000143246233994
0.000136301964162
0.000129423111111
0.000122664089428
0.000116064837435
0.000109653598349
0.000103452282101
9.74801880611e-05
9.17552018704e-05
8.62937467846e-05
8.11102523546e-05
7.6216227993e-05
7.16191355304e-05
6.73214190811e-05
6.33199764056e-05
5.96062192438e-05
5.61667418701e-05
5.29844725842e-05
5.00400636304e-05
4.73132477304e-05
4.47839580484e-05
4.24331194671e-05
4.02431161346e-05
3.81979968232e-05
3.62834972517e-05
3.44869515034e-05
3.27971472646e-05
3.12041613394e-05
2.96991969633e-05
2.8274434004e-05
2.69228965147e-05
2.5638338371e-05
2.44151457978e-05
2.32482548141e-05
2.21330814224e-05
2.1065462495e-05
2.00416055414e-05
1.9058045815e-05
1.81116094772e-05
1.71993817562e-05
1.63186792367e-05
1.5467025563e-05
1.46421299703e-05
1.3841868151e-05
1.30642650522e-05
1.23074792457e-05
1.15697885783e-05
1.08495768239e-05
1.01453211032e-05
9.45557982726e-06
8.7789809385e-06
8.11421017615e-06
7.45999904978e-06
6.81511204616e-06
6.17833234636e-06
5.54844477338e-06
4.92421368348e-06
4.30435152108e-06
3.68747012418e-06
3.0720004099e-06
2.45605604367e-06
1.83720497903e-06
1.21211075998e-06
5.76039936763e-07
4.44321186068e-08
0.000287163453149
0.000289756057174
0.000290926864889
0.000290718864019
0.000289666121783
0.000288193247178
0.000286568221888
0.000284934248217
0.000283356208314
0.000281856376613
0.000280436370371
0.000279089082623
0.000277804610351
0.000276572932448
0.00027538494822
0.000274232743241
0.000273109523896
0.000272009434285
0.000270927352484
0.000269858705541
0.000268799315372
0.00026774527572
0.00026669285578
0.000265638424676
0.000264578395264
0.000263509173761
0.000262427113921
0.00026132848194
0.000260209422387
0.000259065923696
0.00025789378231
0.000256688564111
0.000255445561854
0.000254159747148
0.000252825715451
0.000251437622178
0.000249989107757
0.000248473208942
0.000246882253303
0.000245207733394
0.000243440157125
0.000241568871592
0.000239581860011
0.000237465516458
0.000235204412787
0.000232781087954
0.000230175913506
0.000227367118169
0.000224331081758
0.000221043015916
0.000217478110065
0.000213613111494
0.000209428138035
0.000204908366326
0.000200045239214
0.000194837103242
0.000189289621076
0.000183416471606
0.000177240238569
0.000170792305468
0.000164110954793
0.000157240023892
0.000150231801666
0.000143151495724
0.000136075170631
0.000129077623241
0.000122218523725
0.000115537509768
0.000109059677952
0.000102804064331
9.6788510588e-05
9.10304245606e-05
8.5546303718e-05
8.03510299452e-05
7.54566737244e-05
7.08710033788e-05
6.65962223164e-05
6.26282866752e-05
5.89569645328e-05
5.55666613604e-05
5.24378488631e-05
4.95487652954e-05
4.68770252044e-05
4.44008864586e-05
4.21000820979e-05
3.99562511429e-05
3.79530660287e-05
3.60761650058e-05
3.43129797206e-05
3.26525210636e-05
3.10851617067e-05
2.96024353926e-05
2.81968612929e-05
2.68617949344e-05
2.55913038556e-05
2.43800647276e-05
2.32232784539e-05
2.21165999608e-05
2.10560798901e-05
2.00381158492e-05
1.90594113629e-05
1.81169410084e-05
1.72079205634e-05
1.63297812054e-05
1.54801470208e-05
1.46568152058e-05
1.38577384752e-05
1.30810092625e-05
1.23248453807e-05
1.15875768396e-05
1.08676335705e-05
1.01635338083e-05
9.47387289915e-06
8.79731227069e-06
8.13256826126e-06
7.4784003901e-06
6.83359846341e-06
6.19696754489e-06
5.56730918092e-06
4.94339611533e-06
4.32393572188e-06
3.70751398556e-06
3.09250654487e-06
2.47693618809e-06
1.85825007745e-06
1.23299363436e-06
5.96385739769e-07
5.82162742702e-08
0.000283526991793
0.00028597643521
0.000287302312267
0.00028745585663
0.000286823134516
0.00028574376505
0.000284455074261
0.000283099043844
0.000281750205498
0.000280442039257
0.000279185526645
0.000277980449161
0.000276821675344
0.000275702411144
0.00027461574638
0.000273555298097
0.000272515401569
0.000271491091411
0.000270477997955
0.000269472220381
0.000268470204461
0.000267468635681
0.00026646435015
0.00026545426235
0.000264435308853
0.000263404399143
0.000262358368093
0.000261293942956
0.000260207709809
0.000259096080783
0.000257955260338
0.000256781209092
0.000255569603727
0.000254315791373
0.000253014736629
0.000251660959075
0.000250248458588
0.000248770625168
0.000247220129203
0.000245588787303
0.000243867398234
0.000242045543519
0.000240111348826
0.000238051206782
0.000235849471672
0.000233488154363
0.000230946674761
0.000228201768925
0.000225227691279
0.000221996877337
0.000218481200048
0.000214653819693
0.000210491386902
0.000205976104739
0.000201097105298
0.000195850969088
0.000190241941392
0.000184282829605
0.000177996662774
0.000171416985091
0.000164584528882
0.000157543997702
0.000150349060726
0.000143071785017
0.000135802039041
0.00012862916747
0.000121620307309
0.000114814035224
0.00010823074294
0.000101885957345
9.57963493553e-05
8.99791807221e-05
8.44511956903e-05
7.92278891817e-05
7.43220180002e-05
6.97416348364e-05
6.54884778605e-05
6.15571252374e-05
5.79350694414e-05
5.46037593009e-05
5.15404056402e-05
4.87200931891e-05
4.61177099061e-05
4.37093820053e-05
4.14733330016e-05
3.93902480686e-05
3.74432916543e-05
3.56179233775e-05
3.39016226048e-05
3.22835924556e-05
3.07544818725e-05
2.93061426872e-05
2.79314258889e-05
2.66240147849e-05
2.53782900684e-05
2.41892212e-05
2.30522789009e-05
2.1963364327e-05
2.09187513252e-05
1.99150389335e-05
1.89491119154e-05
1.80181076297e-05
1.7119387915e-05
1.62505149838e-05
1.54092305237e-05
1.45934373953e-05
1.38011834201e-05
1.3030646867e-05
1.2280123295e-05
1.15480134783e-05
1.08328121502e-05
1.01330973398e-05
9.44752004333e-06
8.77479396598e-06
8.11368497087e-06
7.46299976289e-06
6.82157306785e-06
6.18825218082e-06
5.56187702765e-06
4.94125273468e-06
4.32510976036e-06
3.71204369735e-06
3.10042263952e-06
2.48824524257e-06
1.87292985365e-06
1.2510203821e-06
6.178142203e-07
7.52068408664e-08
0.000280555087514
0.000282855052942
0.000284256493878
0.000284661213992
0.000284348691047
0.000283587340204
0.000282581607856
0.000281465471336
0.000280317162405
0.000279177515188
0.000278064780839
0.000276984650144
0.000275936385885
0.000274916320399
0.000273919729684
0.000272941765792
0.00027197786826
0.000271023900873
0.000270076152546
0.000269131277855
0.000268186216695
0.000267238112444
0.000266284237074
0.000265321927817
0.000264348533681
0.000263361367734
0.000262357661746
0.000261334532913
0.000260288950928
0.000259217705924
0.000258117375705
0.000256984290714
0.000255814495162
0.00025460370256
0.000253347243629
0.000252040004081
0.000250676349167
0.000249250030972
0.000247754073359
0.000246180628162
0.000244520794896
0.000242764395349
0.000240899694818
0.000238913065146
0.000236788593963
0.00023450766387
0.000232048559627
0.000229386213827
0.000226492266572
0.000223335667584
0.000219884036004
0.000216105839655
0.000211973122847
0.000207464103233
0.000202564795043
0.000197269304688
0.000191579628163
0.000185506762873
0.000179073804625
0.000172317447888
0.000165282314727
0.000158013406861
0.000150564208666
0.000143015103829
0.000135476451066
0.000128059794523
0.000120842854684
0.000113861436501
0.000107128696536
0.000100655950076
9.44594145123e-05
8.85565538459e-05
8.29642810208e-05
7.76986560422e-05
7.2773069431e-05
6.81956269465e-05
6.39671493582e-05
6.00801702397e-05
5.65190376055e-05
5.32612418495e-05
5.02797278679e-05
4.75455475442e-05
4.50301831942e-05
4.27071610987e-05
4.05529056294e-05
3.85469892899e-05
3.66719952844e-05
3.49131821662e-05
3.32580820725e-05
3.16961087089e-05
3.02182110953e-05
2.88165844367e-05
2.74844365495e-05
2.62158026328e-05
2.50053996812e-05
2.38485122512e-05
2.27409025459e-05
2.16787391343e-05
2.06585399112e-05
1.96771259256e-05