/*--------------------------------*- C++ -*----------------------------------*\
  =========                 |
  \\      /  F ield         | OpenFOAM: The Open Source CFD Toolbox
   \\    /   O peration     | Website:  https://openfoam.org
    \\  /    A nd           | Version:  7
     \\/     M anipulation  |
\*---------------------------------------------------------------------------*/
FoamFile
{
    version     2.0;
    format      ascii;
    class       surfaceScalarField;
    location    "1140";
    object      phi;
}
// * * * * * * * * * * * * * * * * * * * * * * * * * * * * * * * * * * * * * //

dimensions      [0 3 -1 0 0 0 0];

internalField   nonuniform List<scalar> 
16192
(
6.92899922141e-10
2.44600077859e-10
4.93516721091e-10
1.99383207246e-10
3.64772092704e-10
1.28744633639e-10
2.82200100011e-10
8.25719969908e-11
2.27602333655e-10
5.45977701328e-11
1.90031799285e-10
3.75705380372e-11
1.63142527512e-10
2.68892755063e-11
1.43219070463e-10
1.99234609376e-11
1.28025031879e-10
1.51940426209e-11
1.16166499901e-10
1.18585362077e-11
1.06742118044e-10
9.42438625542e-12
9.91478805878e-11
7.59424208021e-12
9.29655348294e-11
6.18235057779e-12
8.78968826086e-11
5.0686572988e-12
8.37238774165e-11
4.17301048741e-12
8.02836221304e-11
3.44026086506e-12
7.74522265848e-11
2.83140135171e-12
7.51340901865e-11
2.31814249907e-12
7.32546006874e-11
1.87949582024e-12
7.17550440473e-11
1.49956324926e-12
7.05889804928e-11
1.16607035817e-12
6.9719617312e-11
8.69370245852e-13
6.91178723642e-11
6.01752161196e-13
6.87609275893e-11
3.56952201949e-13
6.86311345825e-11
1.29800514719e-13
6.87151792489e-11
-8.40370135485e-14
6.90034370106e-11
-2.88250115995e-13
6.94894715993e-11
-4.86026886734e-13
7.01696421575e-11
-6.80162969454e-13
7.1042793324e-11
-8.73143626154e-13
7.21100047954e-11
-1.06720416283e-12
7.3374384287e-11
-1.26437234571e-12
7.48408863999e-11
-1.46649532186e-12
7.65161444401e-11
-1.67525152536e-12
7.84082982952e-11
-1.89214781063e-12
8.05268044296e-11
-2.11850046613e-12
8.28822084795e-11
-2.35539894467e-12
8.54858630664e-11
-2.60364992676e-12
8.83495672484e-11
-2.86370013642e-12
9.14851067739e-11
-3.13553594363e-12
9.49036696769e-11
-3.41855992538e-12
9.86151182026e-11
-3.7114459601e-12
1.0262709921e-10
-4.01197895452e-12
1.06943990381e-10
-4.31688939205e-12
1.11565691859e-10
-4.62170002777e-12
1.16486300956e-10
-4.92060768723e-12
1.21692731808e-10
-5.20642949865e-12
1.2716337733e-10
-5.47064390016e-12
1.32866932921e-10
-5.70355369734e-12
1.38761521037e-10
-5.8945856289e-12
1.44794246728e-10
-6.03272263698e-12
1.50901291975e-10
-6.10704136638e-12
1.57008605973e-10
-6.10730942074e-12
1.63033199754e-10
-6.0245883868e-12
1.68885002561e-10
-5.85179689725e-12
1.74469213275e-10
-5.5842043538e-12
1.79689062839e-10
-5.21984324477e-12
1.84448902617e-10
-4.75983371969e-12
1.88657522464e-10
-4.20861464043e-12
1.92231601581e-10
-3.5740749924e-12
1.95099180706e-10
-2.86757659037e-12
1.97203003949e-10
-2.10382235594e-12
1.98503452944e-10
-1.30045004245e-12
1.98980632252e-10
-4.77182129614e-13
1.98635084964e-10
3.45542560001e-13
1.97486811895e-10
1.14826665801e-12
1.95572722957e-10
1.9140807198e-12
1.92943102361e-10
2.62961080265e-12
1.89657900168e-10
3.28519075992e-12
1.85783547741e-10
3.87433971429e-12
1.81390624584e-10
4.39290927024e-12
1.76552336982e-10
4.83827303748e-12
1.71343535135e-10
5.20878678997e-12
1.65839937166e-10
5.50358290479e-12
1.6011727788e-10
5.72264433061e-12
1.54250219479e-10
5.86704392212e-12
1.48310988359e-10
5.93921710343e-12
1.42367823112e-10
5.94315191928e-12
1.36483393206e-10
5.88441712388e-12
1.30713381838e-10
5.76999923335e-12
1.25105402606e-10
5.60796749673e-12
1.19698367295e-10
5.40702399345e-12
1.14522342837e-10
5.17601325881e-12
1.09598867461e-10
4.92346428071e-12
1.04941637561e-10
4.65721861086e-12
1.00557452383e-10
4.38417369841e-12
9.64472953844e-11
4.11014507175e-12
9.26074494384e-11
3.83983362271e-12
8.90305631579e-11
3.5768733632e-12
8.57066165525e-11
3.32393319576e-12
8.26237547149e-11
3.08284779786e-12
7.97689816059e-11
2.8547585846e-12
7.71287158558e-11
2.64025065181e-12
7.46892227204e-11
2.43947763821e-12
7.24369369256e-11
2.25226984497e-12
7.03586960292e-11
2.07822468244e-12
6.84418998226e-11
1.91677969732e-12
6.6674612989e-11
1.76727021831e-12
6.50456227859e-11
1.62897346247e-12
6.35444644e-11
1.50114169962e-12
6.2161421434e-11
1.3830263196e-12
6.08875099831e-11
1.27389500781e-12
5.97144503444e-11
1.17304338449e-12
5.86346316932e-11
1.07980272958e-12
5.76410714341e-11
9.93544653732e-13
5.67273724166e-11
9.13683851208e-13
5.58876782214e-11
8.39679449296e-13
5.51166282254e-11
7.71035773152e-13
5.44093116367e-11
7.07302868382e-13
5.37612210446e-11
6.48077458758e-13
5.31682037904e-11
5.93004686559e-13
5.26264104907e-11
5.41781366272e-13
5.21322378401e-11
4.94161330827e-13
5.16822632385e-11
4.49963950155e-13
5.12731661931e-11
4.09087043578e-13
5.09016306471e-11
3.71526236803e-13
5.05642184045e-11
3.37403609797e-13
5.02572001918e-11
3.07010290602e-13
4.99763227143e-11
2.80870254453e-13
4.97164787592e-11
2.59837461565e-13
4.94712264618e-11
2.45246530048e-13
4.92320704269e-11
2.39151024747e-13
4.89873617759e-11
2.44704397282e-13
4.87205988316e-11
2.66759452615e-13
4.84078694286e-11
3.12726613232e-13
4.80146004813e-11
3.93266778676e-13
4.74945472115e-11
5.2005170441e-13
6.673121139e-13
9.53384989135e-10
2.28715095826e-10
8.59602742574e-10
2.93165463807e-10
7.45065800803e-10
2.43281583751e-10
6.41926358955e-10
1.85711445775e-10
5.56811483958e-10
1.39712651559e-10
4.88515622916e-10
1.05866405533e-10
4.3401263062e-10
8.13922744795e-11
3.90345857566e-10
6.35902409767e-11
3.55098494657e-10
5.04414128397e-11
3.26411503908e-10
4.05455346377e-11
3.0288374514e-10
3.29521530872e-11
2.83462130425e-10
2.70158652918e-11
2.67350823834e-10
2.22936661044e-11
2.53942849061e-10
1.84766414962e-11
2.42770396641e-10
1.53454728094e-11
2.33469147433e-10
1.27415204961e-11
2.25752662235e-10
1.05478974631e-11
2.19393887211e-10
8.67692895778e-12
2.14211674377e-10
7.06172055591e-12
2.10060852588e-10
5.65039742496e-12
2.06824831335e-10
4.4021044026e-12
2.04410031062e-10
3.28418371895e-12
2.02741643991e-10
2.27015273305e-12
2.01760376664e-10
1.3382333195e-12
2.01419923158e-10
4.70267967919e-13
2.01684989083e-10
-3.49088863294e-13
2.02529731084e-10
-1.13297806819e-12
2.03936513372e-10
-1.89279519396e-12
2.05894905987e-10
-2.63854184768e-12
2.08400865353e-10
-3.3790895466e-12
2.11456046046e-10
-4.12237188982e-12
2.15067202798e-10
-4.87551665769e-12
2.19245643029e-10
-5.64492382818e-12
2.24006694824e-10
-6.43629234574e-12
2.29369152082e-10
-7.2545950197e-12
2.35354660035e-10
-8.10399930058e-12
2.41986998668e-10
-8.98772953742e-12
2.49291221994e-10
-9.9078662471e-12
2.57292605586e-10
-1.08650778537e-11
2.66015357764e-10
-1.18582832669e-11
2.75481049393e-10
-1.2884247745e-11
2.85706729329e-10
-1.39371229365e-11
2.9670270539e-10
-1.50079528429e-11
3.08470000934e-10
-1.60841832603e-11
3.20997531766e-10
-1.71492295287e-11
3.34259101566e-10
-1.81821761294e-11
3.48210368409e-10
-1.91576947378e-11
3.6278599771e-10
-2.00462709425e-11
3.77897261783e-10
-2.08148146431e-11
3.93430373707e-10
-2.14276932015e-11
4.09245825794e-10
-2.18481690529e-11
4.25178949996e-10
-2.20401584105e-11
4.41041821292e-10
-2.19701722283e-11
4.56626520784e-10
-2.16092781997e-11
4.71709674262e-10
-2.09349399967e-11
4.86058117577e-10
-1.99326370583e-11
4.99435496775e-10
-1.85972123706e-11
5.11609587102e-10
-1.69339151597e-11
5.22360082068e-10
-1.49591027147e-11
5.3148657806e-10
-1.27005666093e-11
5.38816442651e-10
-1.01974398609e-11
5.44212176387e-10
-7.49955798102e-12
5.47577682909e-10
-4.66596182443e-12
5.48862612229e-10
-1.76211994809e-12
5.48063856266e-10
1.14428678101e-12
5.45223646126e-10
3.98846199036e-12
5.40424514051e-10
6.71319494469e-12
5.33782200782e-10
9.27190345729e-12
5.2543800115e-10
1.1629367256e-11
5.15551841143e-10
1.37604746379e-11
5.04296749264e-10
1.56479746319e-11
4.91854735899e-10
1.72802591814e-11
4.78413670062e-10
1.86498252194e-11
4.64164605325e-10
1.97526206418e-11
4.49299070896e-10
2.05881524642e-11
4.34006034453e-10
2.11600551115e-11
4.18468470408e-10
2.14767569696e-11
4.0285968361e-10
2.15519157027e-11
3.8733968413e-10
2.14043945676e-11
3.72051972482e-10
2.1057689721e-11
3.57121060238e-10
2.05388591209e-11
3.42650952054e-10
1.98771118944e-11
3.28724672174e-10
1.91022728073e-11
3.1540478311e-10
1.82433327571e-11
3.0273473261e-10
1.73272479245e-11
2.90740806061e-10
1.63780783237e-11
2.79434441991e-10
1.54164862361e-11
2.6881469161e-10
1.44595600795e-11
2.58870642074e-10
1.35208978206e-11
2.49583676643e-10
1.26108724611e-11
2.40929490474e-10
1.17370066731e-11
2.32879824951e-10
1.09043958314e-11
2.25403911519e-10
1.0116134858e-11
2.1846964017e-10
9.37371900717e-12
2.12044477564e-10
8.67740179311e-12
2.06096168752e-10
8.0265023788e-12
2.00593255313e-10
7.41966165987e-12
1.95505443965e-10
6.85504995192e-12
1.90803854053e-10
6.3305317224e-12
1.86461170907e-10
5.84379336349e-12
1.82451725624e-10
5.39244038259e-12
1.78751520178e-10
4.97406968147e-12
1.75338211084e-10
4.58632223072e-12
1.72191063778e-10
4.22692047072e-12
1.69290885291e-10
3.89369431712e-12
1.66619942385e-10
3.58459880677e-12
1.64161868686e-10
3.29772611192e-12
1.61901564384e-10
3.03131406002e-12
1.59825089094e-10
2.78375319101e-12
1.57919548652e-10
2.55359406622e-12
1.56172973994e-10
2.33955665711e-12
1.54574190271e-10
2.14054361741e-12
1.53112671726e-10
1.95565962666e-12
1.51778377361e-10
1.78423934172e-12
1.50561559423e-10
1.62588728554e-12
1.49452535365e-10
1.4805339198e-12
1.48441410302e-10
1.34851361918e-12
1.47517734849e-10
1.23067204711e-12
1.46670080022e-10
1.12851275006e-12
1.45885511666e-10
1.04439488239e-12
1.45148954585e-10
9.81794081389e-13
1.44442467572e-10
9.45629930865e-13
1.43744539212e-10
9.42626052596e-13
1.43029753455e-10
9.81539875191e-13
1.42269805069e-10
1.07267095747e-12
1.41438398322e-10
1.22467063987e-12
1.40527547059e-10
1.43090125249e-12
1.61993805745e-12
9.76217660962e-10
1.89997440111e-10
9.62981007542e-10
3.06402123499e-10
9.06110042185e-10
3.00152554175e-10
8.33771508864e-10
2.58049983692e-10
7.60960211513e-10
2.12523953323e-10
6.94086294795e-10
1.72740326791e-10
6.35218950979e-10
1.40259623056e-10
5.84461122538e-10
1.14348074479e-10
5.41128513002e-10
9.37740277216e-11
5.0429882999e-10
7.73752233509e-11
4.73050318812e-10
6.42006702952e-11
4.46553464482e-10
5.35127260684e-11
4.24096336435e-10
4.47508009758e-11
4.05081936966e-10
3.74910482603e-11
3.89015288115e-10
3.141212937e-11
3.75488111421e-10
2.62687054043e-11
3.64164318667e-10
2.18716988563e-11
3.54767422027e-10
1.80738347465e-11
3.47070052459e-10
1.47590996765e-11
3.40885414277e-10
1.18350456403e-11
3.36060387628e-10
9.22714143118e-12
3.32469985217e-10
6.87459692407e-12
3.30012899041e-10
4.72724995376e-12
3.28607918334e-10
2.74322538113e-12
3.2819103815e-10
8.8715962233e-13
3.28713116374e-10
-8.71155449706e-13
3.30137960078e-10
-2.55781018985e-12
3.32440751479e-10
-4.19557502099e-12
3.35606737069e-10
-5.80451611847e-12
3.39630115862e-10
-7.40245723028e-12
3.44513068753e-10
-9.00531414356e-12
3.50264880302e-10
-1.06273179916e-11
3.56901103036e-10
-1.22811370356e-11
3.64442719099e-10
-1.3977899504e-11
3.72915248854e-10
-1.57271167514e-11
3.82347758084e-10
-1.75365012924e-11
3.92771708187e-10
-1.941167342e-11
4.04219595588e-10
-2.13557483033e-11
4.16723320714e-10
-2.33687986993e-11
4.30312233062e-10
-2.5447192194e-11
4.4501080064e-10
-2.75828128849e-11
4.60835870594e-10
-2.97621911514e-11
4.77793506903e-10
-3.19655881562e-11
4.95875432309e-10
-3.41661080429e-11
5.15055147434e-10
-3.63289443653e-11
5.35283869184e-10
-3.84108974763e-11
5.56486499301e-10
-4.03603242374e-11
5.78557912922e-10
-4.21176832431e-11
6.01359912181e-10
-4.36168117798e-11
6.24719223342e-10
-4.47870009928e-11
6.48426891312e-10
-4.55558324108e-11
6.72239354901e-10
-4.58526158704e-11
6.95881357965e-10
-4.56121678856e-11
7.19050711653e-10
-4.47786232123e-11
7.41424786271e-10
-4.33090052351e-11
7.62668523378e-10
-4.11763644069e-11
7.8244369828e-10
-3.83723779828e-11
8.0041912584e-10
-3.49093344143e-11
8.16281447581e-10
-3.08214180439e-11
8.2974609602e-10
-2.61652109498e-11
8.40567995896e-10
-2.10193386239e-11
8.48551500778e-10
-1.54830648121e-11
8.535588474e-10
-9.67331376305e-12
8.55516076434e-10
-3.71935743671e-12
8.5441520591e-10
2.24514560691e-12
8.50311889979e-10
8.09176329545e-12
8.43318869285e-10
1.37061980397e-11
8.33596641499e-10
1.89941110971e-11
8.21343317099e-10
2.38826691331e-11
8.06785327926e-10
2.83184396081e-11
7.90169812284e-10
3.22634648072e-11
7.71758679431e-10
3.56913661203e-11
7.51823852515e-10
3.85846261592e-11
7.30643042519e-10
4.09334052484e-11
7.08495489874e-10
4.27356804622e-11
6.85657339916e-10
4.39981815529e-11
6.62396590919e-10
4.4737483495e-11
6.38967816378e-10
4.49806689811e-11
6.1560704036e-10
4.47651502486e-11
5.92527221982e-10
4.41374886789e-11
5.69914759588e-10
4.31513026002e-11
5.47927299309e-10
4.18645536589e-11
5.26692950819e-10
4.03366027308e-11
5.06310841311e-10
3.86254235382e-11
4.86852796618e-10
3.67852733217e-11
4.68365862707e-10
3.48649923249e-11
4.50875354116e-10
3.29069739861e-11
4.34388143148e-10
3.09467493251e-11
4.18895950166e-10
2.9013067987e-11
4.04378461555e-10
2.71283373025e-11
3.90806158788e-10
2.53092846003e-11
3.78142798624e-10
2.35677302923e-11
3.66347521446e-10
2.19113854246e-11
3.55376597629e-10
2.03446155538e-11
3.45184836679e-10
1.88691348148e-11
3.3572669777e-10
1.74846129685e-11
3.26957140922e-10
1.61891898261e-11
3.18832261451e-10
1.49799006392e-11
3.11309744464e-10
1.38530198602e-11
3.04349175277e-10
1.28043338806e-11
2.97912234045e-10
1.18293531587e-11
2.91962801075e-10
1.09234746245e-11
2.86466992151e-10
1.00821035851e-11
2.81393141733e-10
9.30074395978e-12
2.76711745963e-10
8.57506381771e-12
2.72395376564e-10
7.90094274729e-12
2.68418571994e-10
7.2745060428e-12
2.64757711876e-10
6.69215048328e-12
2.61390876925e-10
6.15056538946e-12
2.58297696547e-10
5.64675273369e-12
2.55459183075e-10
5.17804945521e-12
2.52857551605e-10
4.74215552813e-12
2.50476021621e-10
4.33717115806e-12
2.48298596508e-10
3.96164716829e-12
2.46309814815e-10
3.61465284924e-12
2.44494467453e-10
3.29586635783e-12
2.42837274431e-10
3.00569291463e-12
2.41322518025e-10
2.74541596419e-12
2.39933635344e-10
2.51738418127e-12
2.38652789456e-10
2.32523079807e-12
2.37460470264e-10
2.1741045869e-12
2.36335242376e-10
2.07085043857e-12
2.35253884567e-10
2.02397774426e-12
2.34192407007e-10
2.04301252102e-12
2.33128847328e-10
2.13622690261e-12
2.32049384547e-10
2.30413089378e-12
2.30958221434e-10
2.52206290243e-12
2.69841145832e-12
9.71766959433e-10
1.55730484538e-10
9.86690286577e-10
2.91478800244e-10
9.68211229307e-10
3.18631614906e-10
9.27949417126e-10
2.9831179843e-10
8.77760303757e-10
2.62713068887e-10
8.25166509667e-10
2.25334123126e-10
7.7431825031e-10
1.91107884863e-10
7.27248919816e-10
1.61417407683e-10
6.84772559218e-10
1.36250391309e-10
6.47040650626e-10
1.15107135239e-10
6.1386791523e-10
9.73734093145e-11
5.84916053194e-10
8.24645920899e-11
5.59793966338e-10
6.98728921942e-11
5.38110178302e-10
5.91748410731e-11
5.19498465347e-10
5.00238475202e-11
5.03628803106e-10
4.21383732876e-11
4.90210498706e-10
3.52900093351e-11
4.78991355495e-10
2.92929844892e-11
4.69754991114e-10
2.39954710139e-11
4.62317454043e-10
1.9272590094e-11
4.56523735074e-10
1.50208681616e-11
4.52244467031e-10
1.11538730919e-11
4.49372938761e-10
7.59878664312e-12
4.47822461493e-10
4.29371133296e-12
4.47524078632e-10
1.18555134105e-12
4.48424589063e-10
-1.77165689652e-12
4.50484838986e-10
-4.61805111124e-12
4.53678244692e-10
-7.38897177105e-12
4.57989500713e-10
-1.01157633529e-11
4.63413427807e-10
-1.28263757792e-11
4.69953916771e-10
-1.55457949397e-11
4.77622924927e-10
-1.82963184293e-11
4.86439479378e-10
-2.10976843541e-11
4.96428640489e-10
-2.39670541333e-11
5.07620374492e-10
-2.69188450479e-11
5.20048282213e-10
-2.99644041241e-11
5.33748125742e-10
-3.31115129734e-11
5.48756093784e-10
-3.63637132876e-11
5.6510674388e-10
-3.97194467068e-11
5.82830564093e-10
-4.31710112325e-11
6.01951103292e-10
-4.67033518121e-11
6.22481637483e-10
-5.02927258455e-11
6.44421365429e-10
-5.39053172885e-11
6.67751170197e-10
-5.74959144699e-11
6.92429038791e-10
-6.10068149137e-11
7.18385306751e-10
-6.43671673942e-11
7.45517977056e-10
-6.74929962582e-11
7.73688450467e-10
-7.02881577827e-11
8.02718074045e-10
-7.26464356362e-11
8.32385952189e-10
-7.44548782415e-11
8.62428441376e-10
-7.55983193407e-11
8.92540661648e-10
-7.59648323366e-11
9.22380204805e-10
-7.54517057058e-11
9.51573041249e-10
-7.39714528657e-11
9.79721463573e-10
-7.14574196452e-11
1.00641379933e-09
-6.78686915385e-11
1.03123556752e-09
-6.31941374748e-11
1.05378171077e-09
-5.7455469576e-11
1.07366946685e-09
-5.07091674165e-11
1.09055138274e-09
-4.30471221931e-11
1.10412796846e-09
-3.4595922374e-11
1.11415948423e-09
-2.5514581654e-11
1.12047613417e-09
-1.59899680208e-11
1.12298543541e-09
-6.22866625382e-12
1.12167516326e-09
3.55540699677e-12
1.1166107339e-09
1.31561788648e-11
1.10792731451e-09
2.23896007747e-11
1.09581850843e-09
3.11028979539e-11
1.08052416473e-09
3.91769914397e-11
1.06231936694e-09
4.65232144406e-11
1.04150549443e-09
5.30773134208e-11
1.01840322272e-09
5.87936136916e-11
9.93346795577e-10
6.36410294472e-11
9.66678799835e-10
6.76013778839e-11
9.38744815325e-10
7.06696428482e-11
9.09887586498e-10
7.28553894264e-11
8.80440682791e-10
7.41843674151e-11
8.50721913182e-10
7.46994199599e-11
8.21026963928e-10
7.44600818592e-11
7.91623806863e-10
7.35406289283e-11
7.62748366737e-10
7.20267264566e-11
7.34601775807e-10
7.00111286293e-11
7.07349327518e-10
6.75890350546e-11
6.81121033723e-10
6.485370113e-11
6.56013529002e-10
6.18927613303e-11
6.32092978375e-10
5.87855255685e-11
6.09398622027e-10
5.56013120949e-11
5.8794662248e-10
5.239872971e-11
5.67733938287e-10
4.92257320082e-11
5.48742021312e-10
4.61202331184e-11
5.30940202198e-10
4.31110815637e-11
5.14288689254e-10
4.02192201905e-11
4.98741150538e-10
3.74589002556e-11
4.84246883405e-10
3.48388581025e-11
4.70752595903e-10
3.23633971266e-11
4.5820383832e-10
3.00333449213e-11
4.46546127539e-10
2.78468746452e-11
4.35725809291e-10
2.58001927613e-11
4.25690700126e-10
2.38881028463e-11
4.16390548491e-10
2.21044594416e-11
4.07777348547e-10
2.04425272324e-11
3.99805536678e-10
1.88952609684e-11
3.92432094832e-10
1.74555203342e-11
3.85616581525e-10
1.61162327167e-11
3.79321106379e-10
1.48705150269e-11
3.73510261539e-10
1.37117643592e-11
3.68151019403e-10
1.26337257082e-11
3.63212604303e-10
1.16305439483e-11
3.58666342736e-10
1.06968061896e-11
3.54485495553e-10
9.8275800778e-12
3.50645073122e-10
9.01845299942e-12
3.47121633739e-10
8.26557702288e-12
3.43893063841e-10
7.56572417863e-12
3.40938338416e-10
6.91635676378e-12
3.38237259333e-10
6.31571715965e-12
3.35770170703e-10
5.76294129948e-12
3.33517652484e-10
5.25819853494e-12
3.31460199422e-10
4.80285754236e-12
3.29577902409e-10
4.39967083393e-12
3.27850168216e-10
4.0529557826e-12
3.26255544967e-10
3.76871979232e-12
3.24771773172e-10
3.55461537648e-12
3.23376262427e-10
3.41948279339e-12
3.22047301861e-10
3.37196848996e-12
3.20766397154e-10
3.41712814449e-12
3.19521818487e-10
3.54870727441e-12
3.18311161809e-10
3.73271837516e-12
3.87867317337e-12
9.63970417111e-10
1.29260068944e-10
9.87794073707e-10
2.67655144967e-10
9.89992921969e-10
3.1643276742e-10
9.72649442247e-10
3.15655278799e-10
9.42704720673e-10
2.92657791013e-10
9.06199391865e-10
2.61839452607e-10
8.67322820843e-10
2.29984456771e-10
8.287176044e-10
2.00022625272e-10
7.91936434582e-10
1.7303156254e-10
7.57815862125e-10
1.4922770941e-10
7.26740960815e-10
1.2844831265e-10
6.98822133463e-10
1.10383421821e-10
6.7400960827e-10
9.46854201289e-11
6.52166031704e-10
8.10184207849e-11
6.33111645918e-10
6.90782368568e-11
6.16651831121e-10
5.85981920746e-11
6.0259344369e-10
4.93484011809e-11
5.90754114464e-10
4.11323185796e-11
5.80967176077e-10
3.37824146814e-11
5.73083917815e-10
2.71558540632e-11
5.66974240719e-10
2.11305513405e-11
5.6252638649e-10
1.5601733772e-11
5.59646157908e-10
1.04790219738e-11
5.58255886996e-10
5.68398926823e-12
5.58293302958e-10
1.14814258387e-12
5.59710387249e-10
-3.18873384125e-12
5.62472254566e-10
-7.37991105087e-12
5.66556089341e-10
-1.14727991927e-11
5.71950131246e-10
-1.55097980557e-11
5.78652696469e-10
-1.95289340154e-11
5.86671213669e-10
-2.35643055065e-11
5.9602124695e-10
-2.76463454985e-11
6.06725470866e-10
-3.18019026184e-11
6.18812557837e-10
-3.6054136073e-11
6.32315931679e-10
-4.04222146076e-11
6.47272336809e-10
-4.49208057604e-11
6.6372016676e-10
-4.95593403199e-11
6.81697493296e-10
-5.43410381136e-11
7.01239734926e-10
-5.92616875782e-11
7.22376907276e-10
-6.43081837231e-11
7.45130404863e-10
-6.94568504372e-11
7.69509281853e-10
-7.46716046486e-11
7.95506026486e-10
-7.99020644273e-11
8.23091868418e-10
-8.50817593969e-11
8.52211717737e-10
-9.01266675489e-11
8.82778914646e-10
-9.49343676518e-11
9.14670061469e-10
-9.93841462163e-11
9.4772030908e-10
-1.03338407964e-10
9.81719555219e-10
-1.06645683501e-10
1.01641006183e-09
-1.09145385382e-10
1.0514859794e-09
-1.10674236012e-10
1.08659516456e-09
-1.11074014931e-10
1.12134349351e-09
-1.10200030398e-10
1.15530165377e-09
-1.07929607175e-10
1.18801419989e-09
-1.04169958399e-10
1.21901054518e-09
-9.8865028432e-11
1.24781752104e-09
-9.20011045572e-11
1.2739731057e-09
-8.36110457779e-11
1.29704083747e-09
-7.37768919114e-11
1.31662433983e-09
-6.26306192633e-11
1.33238142445e-09
-5.03530044193e-11
1.34403735923e-09
-3.71705170409e-11
1.35139668868e-09
-2.33493015666e-11
1.35435220259e-09
-9.18418774046e-12
1.35288886767e-09
5.0187309444e-12
1.34708095535e-09
1.8964077057e-11
1.33708257403e-09
3.23879650235e-11
1.32311408361e-09
4.5071368788e-11
1.30544780547e-09
5.68432479228e-11
1.28439558673e-09
6.7575410164e-11
1.26029909157e-09
7.71737848824e-11
1.23352238783e-09
8.55702937832e-11
1.20444587522e-09
9.27175189664e-11
1.17346060916e-09
9.85866218375e-11
1.14096230494e-09
1.03167926112e-10
1.10734464669e-09
1.06473028e-10
1.07299190635e-09
1.08537089307e-10
1.03827122431e-09
1.09420084731e-10
1.00352513477e-09
1.09206155126e-10
9.69064997927e-10
1.08000750314e-10
9.35165918696e-10
1.0592579076e-10
9.02063527978e-10
1.03113504709e-10
8.69952739258e-10
9.96998091115e-11
8.38988347008e-10
9.58180784644e-11
8.09287152198e-10
9.15939407036e-11
7.80931208993e-10
8.71414526576e-11
7.53971773006e-10
8.25607311095e-11
7.28433576364e-10
7.79369084572e-11
7.04319127549e-10
7.33401619248e-11
6.81612817149e-10
6.88265236375e-11
6.60284686094e-10
6.44391917567e-11
6.40293777464e-10
6.02101070646e-11
6.21591040512e-10
5.61616146201e-11
6.04121790679e-10
5.23080846493e-11
5.87827750766e-10
4.8657413151e-11
5.7264871217e-10
4.52123591807e-11
5.58523860329e-10
4.19717018159e-11
5.45392810681e-10
3.89312175626e-11
5.33196398996e-10
3.60844896221e-11
5.21877267169e-10
3.34235664435e-11
5.1138028046e-10
3.09394893049e-11
5.0165280807e-10
2.86227090406e-11
4.92644893618e-10
2.6463410873e-11
4.84309338266e-10
2.44517646695e-11
4.76601714611e-10
2.25781158661e-11
4.69480326446e-10
2.08331303785e-11
4.62906125812e-10
1.92079049184e-11
4.5684259654e-10
1.76940525867e-11
4.51255610682e-10
1.62837722419e-11
4.46113262711e-10
1.49699091212e-11
4.41385684341e-10
1.3746013349e-11
4.37044841912e-10
1.26064023755e-11
4.33064317115e-10
1.15462328615e-11
4.2941907176e-10
1.05615869962e-11
4.26085197374e-10
9.6495774271e-12
4.23039652084e-10
8.80847349618e-12
4.20259989939e-10
8.03784862141e-12
4.17724093347e-10
7.33874312781e-12
4.15409927858e-10
6.7138263802e-12
4.13295352367e-10
6.16752241541e-12
4.11358037828e-10
5.70602657665e-12
4.09575574865e-10
5.33707171681e-12
4.07925879879e-10
5.06917229293e-12
4.06388016478e-10
4.90982751447e-12
4.04943434042e-10
4.86170728846e-12
4.03577039365e-10
4.91509980183e-12
4.02275393924e-10
5.03436269273e-12
5.13876050324e-12
9.57596644439e-10
1.09163425858e-10
9.8271670822e-10
2.42535082024e-10
9.9539101176e-10
3.03758464616e-10
9.92870688282e-10
3.18175602155e-10
9.78298866444e-10
3.0722961236e-10
9.55774824045e-10
2.84363494556e-10
9.28748088494e-10
2.57011192068e-10
8.997500865e-10
2.29020627265e-10
8.70517455189e-10
2.02264194118e-10
8.42185129415e-10
1.77560035743e-10
8.15458404243e-10
1.5517503869e-10
7.90745940489e-10
1.35095886783e-10
7.68256786494e-10
1.17174575688e-10
7.48069090755e-10
1.01206118479e-10
7.30177894234e-10
8.69694357299e-11
7.14527931848e-10
7.42481572366e-11
7.01035878896e-10
6.28404573293e-11
6.89605250207e-10
5.25629508988e-11
6.80136227465e-10
4.32514414689e-11
6.72532010443e-10
3.47600755447e-11
6.66702801659e-10
2.69597649597e-11
6.62568191761e-10
1.97363488661e-11
6.60058472721e-10
1.29887465119e-11
6.59115239394e-10
6.62722836301e-12
6.59691523117e-10
5.71864819806e-13
6.61751619034e-10
-5.24882365805e-12
6.65270709605e-10
-1.08989954769e-11
6.70234366147e-10
-1.64364496113e-11
6.7663795345e-10
-2.19133793662e-11
6.84485956683e-10
-2.73769314654e-11
6.93791232332e-10
-3.28695757011e-11
7.04574172709e-10
-3.84292808338e-11
7.16861762617e-10
-4.40894880156e-11
7.30686498404e-10
-4.98788679565e-11
7.46085131084e-10
-5.58208441012e-11
7.63097188609e-10
-6.19328608737e-11
7.81763225467e-10
-6.82253756229e-11
8.02122743526e-10
-7.47005554965e-11
8.24211724769e-10
-8.13506690642e-11
8.48059718216e-10
-8.81561783051e-11
8.73686429323e-10
-9.50835635511e-11
9.01097775788e-10
-1.02082953895e-10
9.3028139984e-10
-1.09085691943e-10
9.61201670311e-10
-1.16002033835e-10
9.93794269234e-10
-1.22719270762e-10
1.02796054246e-09
-1.29100645228e-10
1.06356189746e-09
-1.34985505348e-10
1.1004146479e-09
-1.40191161989e-10
1.13828581203e-09
-1.44516850325e-10
1.17689044101e-09
-1.47750015797e-10
1.21589104488e-09
-1.49674839758e-10
1.25489956928e-09
-1.50082537351e-10
1.29348215427e-09
-1.48782611391e-10
1.33116663066e-09
-1.45614077514e-10
1.3674524694e-09
-1.40455789215e-10
1.40182278225e-09
-1.33235331829e-10
1.43375797281e-09
-1.23936284784e-10
1.46275064218e-09
-1.12603704728e-10
1.48832123797e-09
-9.93474782311e-11
1.51003378253e-09
-8.43431563254e-11
1.52751110817e-09
-6.78303255429e-11
1.5404493865e-09
-5.01087945701e-11
1.54863164537e-09
-3.15315638173e-11
1.55193872377e-09
-1.24912737962e-11
1.55035458188e-09
6.60286105086e-12
1.54396314485e-09
2.53554985125e-11
1.53293671469e-09
4.34143762303e-11
1.5175194232e-09
6.04886385338e-11
1.49801047354e-09
7.63521737702e-11
1.47475041065e-09
9.08354480623e-11
1.44811112809e-09
1.03813042181e-10
1.41848864639e-09
1.15192750769e-10
1.38629728028e-09
1.24908861453e-10
1.35196401538e-09
1.32919864558e-10
1.31592226416e-09
1.39209656678e-10
1.27860459114e-09
1.43790681887e-10
1.24043445922e-09
1.46707203509e-10
1.20181746144e-09
1.48037066065e-10
1.16313277117e-09
1.47890829999e-10
1.12472562314e-09
1.46407883776e-10
1.08690152238e-09
1.43749877485e-10
1.04992261533e-09
1.40092397993e-10
1.0140063302e-09
1.35616080422e-10
9.79326098161e-10
1.30498296401e-10
9.46013762972e-10
1.24906261251e-10
9.14163196659e-10
1.18992003625e-10
8.83834641656e-10
1.12889269908e-10
8.55059365604e-10
1.06712167371e-10
8.27844307049e-10
1.00555202349e-10
8.02176486502e-10
9.44943250729e-11
7.78027041151e-10
8.85886170322e-11
7.55354809039e-10
8.28823182165e-11
7.34109437237e-10
7.74069646481e-11
7.14234022571e-10
7.21834768504e-11
6.9566731401e-10
6.72240986598e-11
6.78345518064e-10
6.25341316332e-11
6.62203753211e-10
5.81134428516e-11
6.47177200638e-10
5.39577461433e-11
6.332019961e-10
5.00596701106e-11
6.2021590454e-10
4.64096340347e-11
6.08158814287e-10
4.29965557761e-11
5.96973083341e-10
3.98084165156e-11
5.8660376528e-10
3.68327058589e-11
5.76998738358e-10
3.40567690166e-11
5.68108757008e-10
3.14680752094e-11
5.59887441823e-10
2.90544242074e-11
5.52291220617e-10
2.68041054694e-11
5.45279230825e-10
2.47060224886e-11
5.388131909e-10
2.27497930781e-11
5.32857246747e-10
2.09258350351e-11
5.27377797415e-10
1.92254453162e-11
5.22343303345e-10
1.76408799924e-11
5.1772407946e-10
1.61654412201e-11
5.1349207533e-10
1.47935765562e-11
5.09620644722e-10
1.3520994429e-11
5.06084308205e-10
1.23447973938e-11
5.02858514421e-10
1.12636307777e-11
4.99919409469e-10
1.02778374611e-11
4.97243629031e-10
9.38959721371e-12
4.94808135428e-10
8.60300744847e-12
4.92590130417e-10
7.92402406697e-12
4.90567081774e-10
7.36011391689e-12
4.88716896168e-10
6.91935255549e-12
4.87018219395e-10
6.60850006699e-12
4.85450649192e-10
6.42927440998e-12
4.83994048237e-10
6.37169880108e-12
4.8262478146e-10
6.40362848307e-12
6.45819907469e-12
9.52992679793e-10
9.36707459757e-11
9.767025334e-10
2.18825227837e-10
9.94254998242e-10
2.86205998784e-10
1.00092681779e-09
3.11503781585e-10
9.97340350698e-10
3.10816078348e-10
9.8590012175e-10
2.95803722524e-10
9.69143875681e-10
2.73767437382e-10
9.49200194353e-10
2.48964308096e-10
9.2769676083e-10
2.2376762742e-10
9.05817411182e-10
1.99439385466e-10
8.84393007225e-10
1.76599443034e-10
8.63987525862e-10
1.55501368871e-10
8.44968996824e-10
1.36193105811e-10
8.27564648668e-10
1.18610468103e-10
8.11902531312e-10
1.02631554955e-10
7.98042389929e-10
8.81083009057e-11
7.85998295049e-10
7.4884554919e-11
7.75755073432e-10
6.28061756518e-11
7.67280133692e-10
5.17263847655e-11
7.60531899482e-10
4.15083137184e-11
7.55465759211e-10
3.20259095805e-11
7.52038206854e-10
2.31639059257e-11
7.50209670415e-10
1.48172879671e-11
7.49946391192e-10
6.89051286625e-12
7.51221617561e-10
-7.0335606338e-13
7.54016296178e-10
-8.04349665341e-12
7.58319400805e-10
-1.52020944207e-11
7.64127999025e-10
-2.2245042173e-11
7.7144710445e-10
-2.9232479248e-11
7.80289355575e-10
-3.62191772594e-11
7.90674539794e-10
-4.32547549007e-11
8.02628966013e-10
-5.03837024486e-11
8.1618467639e-10
-5.76451943009e-11
8.31378476876e-10
-6.50726649649e-11
8.48250756391e-10
-7.26931208379e-11
8.66844055744e-10
-8.05261582296e-11
8.87201339511e-10
-8.85826582329e-11
9.09363917564e-10
-9.68631332829e-11
9.33368958272e-10
-1.05355710412e-10
9.59246533983e-10
-1.14033755564e-10
9.87016143019e-10
-1.22853175001e-10
1.01668266394e-09
-1.3174947803e-10
1.04823172105e-09
-1.40634752955e-10
1.08162447998e-09
-1.49394797218e-10
1.11679195404e-09
-1.57886749614e-10
1.15362899047e-09
-1.65937686548e-10