/*--------------------------------*- C++ -*----------------------------------*\
  =========                 |
  \\      /  F ield         | OpenFOAM: The Open Source CFD Toolbox
   \\    /   O peration     | Website:  https://openfoam.org
    \\  /    A nd           | Version:  7
     \\/     M anipulation  |
\*---------------------------------------------------------------------------*/
FoamFile
{
    version     2.0;
    format      ascii;
    class       volVectorField;
    location    "1140";
    object      U;
}
// * * * * * * * * * * * * * * * * * * * * * * * * * * * * * * * * * * * * * //

dimensions      [0 1 -1 0 0 0 0];

internalField   nonuniform List<vector> 
8192
(
(0.00104345595017 0.00015654404983 0)
(0.000759306651669 0.000127605252637 0)
(0.000549304840829 8.23965655289e-05 0)
(0.000414062203337 5.28460780741e-05 0)
(0.000326273557546 3.4942572885e-05 0)
(0.000267285845082 2.40451443438e-05 0)
(0.00022603156915 1.7209136324e-05 0)
(0.000196071422704 1.2751015e-05 0)
(0.000173596225499 9.72418727741e-06 0)
(0.000156282580339 7.58946317293e-06 0)
(0.000142661515485 6.03160720347e-06 0)
(0.000131769599125 4.86031493134e-06 0)
(0.000122952585867 3.95670436979e-06 0)
(0.00011575194716 3.24394067123e-06 0)
(0.000109837286416 2.67072671194e-06 0)
(0.00010496479971 2.20176695364e-06 0)
(0.000100950943178 1.81209686509e-06 0)
(9.76552427336e-05 1.4836111994e-06 0)
(9.49687621593e-05 1.20287732495e-06 0)
(9.28061726302e-05 9.59720479528e-07 0)
(9.11001757056e-05 7.46285029229e-07 0)
(8.97975025951e-05 5.56396957345e-07 0)
(8.88559933928e-05 3.85121383165e-07 0)
(8.82424319702e-05 2.28449409248e-07 0)
(8.79309197899e-05 8.30723294204e-08 0)
(8.79016408521e-05 -5.3783688671e-08 0)
(8.81399144061e-05 -1.84480074237e-07 0)
(8.86354615103e-05 -3.1105720751e-07 0)
(8.93818328044e-05 -4.35304300451e-07 0)
(9.03759587082e-05 -5.58811920738e-07 0)
(9.16177907964e-05 -6.83010664214e-07 0)
(9.31100090127e-05 -8.09198301256e-07 0)
(9.48577732396e-05 -9.38557005987e-07 0)
(9.68684997376e-05 -1.07216097623e-06 0)
(9.91516433506e-05 -1.21097459881e-06 0)
(0.000101718465744 -1.35584029832e-06 0)
(0.000104581768262 -1.50745532459e-06 0)
(0.000107755565789 -1.66633595313e-06 0)
(0.000111254675401 -1.83276808731e-06 0)
(0.000115094191374 -2.00674300392e-06 0)
(0.000119288816928 -2.18787835224e-06 0)
(0.000123852024243 -2.37532541446e-06 0)
(0.000128795019144 -2.56766653089e-06 0)
(0.000134125497338 -2.76280921091e-06 0)
(0.000139846196634 -2.95788801777e-06 0)
(0.000145953275401 -3.14918891982e-06 0)
(0.000152434580969 -3.33211487914e-06 0)
(0.000159267909849 -3.5012120961e-06 0)
(0.000166419398561 -3.6502743663e-06 0)
(0.000173842210533 -3.77253480249e-06 0)
(0.00018147569137 -3.86094248767e-06 0)
(0.00018924514477 -3.90850647448e-06 0)
(0.000197062334687 -3.90867802928e-06 0)
(0.000204826755665 -3.85573656755e-06 0)
(0.000212427649482 -3.74515001424e-06 0)
(0.000219746698135 -3.57389078643e-06 0)
(0.000226661296713 -3.34069967666e-06 0)
(0.000233048297891 -3.0462935806e-06 0)
(0.000238788112052 -2.69351336988e-06 0)
(0.000243769039389 -2.28740799514e-06 0)
(0.000247891700664 -1.83524901784e-06 0)
(0.000251073398179 -1.3464463078e-06 0)
(0.000253252132412 -8.32288027169e-07 0)
(0.000254389814526 -3.05396562953e-07 0)
(0.000254474059018 2.21147238401e-07 0)
(0.000253518013989 7.34890661126e-07 0)
(0.000251558102305 1.22501166067e-06 0)
(0.000248650128204 1.68295091369e-06 0)
(0.000244864641618 2.10252208635e-06 0)
(0.000240282526662 2.47957741714e-06 0)
(0.000234991470288 2.81146193295e-06 0)
(0.000229083495402 3.09649474399e-06 0)
(0.000222653358155 3.33362354558e-06 0)
(0.000215797422272 3.52229305906e-06 0)
(0.000208612617629 3.66249237159e-06 0)
(0.00020119519831 3.75490811016e-06 0)
(0.000193639173016 3.80109894619e-06 0)
(0.000186034439342 3.80361722834e-06 0)
(0.000178464778444 3.76602695928e-06 0)
(0.000171005936028 3.69279950935e-06 0)
(0.000163724022044 3.58909919791e-06 0)
(0.000156674412737 3.46049535581e-06 0)
(0.000149901254485 3.31264848564e-06 0)
(0.000143437574591 3.15101713965e-06 0)
(0.000137305923214 2.98061991095e-06 0)
(0.000131519417564 2.80587116698e-06 0)
(0.000126083038571 2.63049284592e-06 0)
(0.000120995036687 2.45749351853e-06 0)
(0.000116248328062 2.28919895245e-06 0)
(0.000111831795015 2.12731724529e-06 0)
(0.000107731437611 1.97302259063e-06 0)
(0.000103931351245 1.82704549414e-06 0)
(0.000100414526375 1.68976041716e-06 0)
(9.71634806888e-05 1.56126568846e-06 0)
(9.41607421734e-05 1.44145270078e-06 0)
(9.1389205091e-05 1.33006379676e-06 0)
(8.88323813451e-05 1.22673900628e-06 0)
(8.64745681994e-05 1.13105293972e-06 0)
(8.43009508959e-05 1.04254301598e-06 0)
(8.2297655799e-05 9.60730687758e-07 0)
(8.04517669338e-05 8.85136844541e-07 0)
(7.8751316107e-05 8.15292804998e-07 0)
(7.71852546096e-05 7.50747766074e-07 0)
(7.5743412504e-05 6.91073746933e-07 0)
(7.44164500014e-05 6.35868578389e-07 0)
(7.31958040644e-05 5.84757664773e-07 0)
(7.20736324083e-05 5.37394847549e-07 0)
(7.1042756126e-05 4.93462894818e-07 0)
(7.00966015118e-05 4.52673835764e-07 0)
(6.9229140916e-05 4.14769573605e-07 0)
(6.84348318944e-05 3.79522999398e-07 0)
(6.77085531399e-05 3.46740074414e-07 0)
(6.70455349317e-05 3.16263251729e-07 0)
(6.64412806903e-05 2.87976928099e-07 0)
(6.58914748362e-05 2.6181570789e-07 0)
(6.53918699777e-05 2.37776791554e-07 0)
(6.4938143393e-05 2.1593831027e-07 0)
(6.45257079016e-05 1.96486585986e-07 0)
(6.41494546599e-05 1.7975696285e-07 0)
(6.3803392943e-05 1.66295975402e-07 0)
(6.34801313414e-05 1.56957779231e-07 0)
(6.31701100087e-05 1.53056655838e-07 0)
(6.28604366098e-05 1.56610814261e-07 0)
(6.25330947888e-05 1.70726049673e-07 0)
(6.21622196865e-05 2.00145032469e-07 0)
(6.17103807424e-05 2.51690738352e-07 0)
(6.11258545234e-05 3.32833090823e-07 0)
(6.03659400679e-05 4.27079752896e-07 0)
(0.00121016639305 0.000302921711158 0)
(0.00116031214829 0.000315231149474 0)
(0.00102698786776 0.00023809677913 0)
(0.000887674982245 0.00017170140337 0)
(0.000767192219464 0.000124358669883 0)
(0.000669009348399 9.17996438852e-05 0)
(0.000590418082263 6.93001919909e-05 0)
(0.000527589432439 5.34487692251e-05 0)
(0.000477084385423 4.20066914948e-05 0)
(0.000436166399082 3.35386053411e-05 0)
(0.000402748959391 2.71209851793e-05 0)
(0.000375261360362 2.21504687181e-05 0)
(0.000352520290726 1.82246506766e-05 0)
(0.000333627950653 1.50689912288e-05 0)
(0.000317896477249 1.249182931e-05 0)
(0.000304793308207 1.03563400711e-05 0)
(0.000293901958188 8.5627512415e-06 0)
(0.000284893791645 7.03684573239e-06 0)
(0.000277507559416 5.72237848074e-06 0)
(0.000271534417258 4.5759748315e-06 0)
(0.000266806837711 3.56363184689e-06 0)
(0.000263190311934 2.65827453747e-06 0)
(0.000260577072034 1.83801913231e-06 0)
(0.000258881293219 1.08491873373e-06 0)
(0.000258035391886 3.84043828889e-07 0)
(0.000257987143834 -2.77200561179e-07 0)
(0.000258697420907 -9.09586037878e-07 0)
(0.000260138396452 -1.52244613165e-06 0)
(0.00026229210839 -2.12397108296e-06 0)
(0.000265149293658 -2.72142923057e-06 0)
(0.000268708423295 -3.3213286737e-06 0)
(0.00027297487926 -3.92952896218e-06 0)
(0.000277960221329 -4.55130825602e-06 0)
(0.000283681496226 -5.1913880775e-06 0)
(0.00029016054202 -5.85391541141e-06 0)
(0.000297423239755 -6.54239985069e-06 0)
(0.00030549866157 -7.25960222854e-06 0)
(0.000314418061224 -8.00737035127e-06 0)
(0.000324213649651 -8.7864179137e-06 0)
(0.000334917096544 -9.59604429474e-06 0)
(0.00034655770058 -1.04337969091e-05 0)
(0.000359160178382 -1.12950840938e-05 0)
(0.00037274203822 -1.21727563504e-05 0)
(0.000387310532048 -1.30566864975e-05 0)
(0.000402859220928 -1.39333949161e-05 0)
(0.000419364245332 -1.47857816426e-05 0)
(0.000436780460784 -1.55930395113e-05 0)
(0.000455037674316 -1.63308254993e-05 0)
(0.000474037286075 -1.69717557379e-05 0)
(0.000493649686714 -1.74862584515e-05 0)
(0.000513712767681 -1.78437706815e-05 0)
(0.000534031856506 -1.80142078572e-05 0)
(0.000554381293624 -1.79695882554e-05 0)
(0.000574507738929 -1.76856746153e-05 0)
(0.00059413516483 -1.71435116121e-05 0)
(0.000612971386777 -1.63307785038e-05 0)
(0.000630715913185 -1.52429155939e-05 0)
(0.000647068853681 -1.38839992828e-05 0)
(0.000661740588269 -1.22673391073e-05 0)
(0.000674461862482 -1.04157706251e-05 0)
(0.000684993933255 -8.36161052878e-06 0)
(0.000693138316184 -6.14616341566e-06 0)
(0.000698745509949 -3.81850359481e-06 0)
(0.000701721788888 -1.43315332973e-06 0)
(0.000702032939837 9.5349077825e-07 0)
(0.000699704001531 3.28750633495e-06 0)
(0.000694814822513 5.52145642527e-06 0)
(0.000687492297493 7.61696912636e-06 0)
(0.000677900929236 9.54531713016e-06 0)
(0.000666233499068 1.12862811854e-05 0)
(0.00065270309786 1.28261656974e-05 0)
(0.000637536950504 1.41558606201e-05 0)
(0.000620971779815 1.5269511686e-05 0)
(0.000603250096248 1.61639702698e-05 0)
(0.000584616752782 1.68389099487e-05 0)
(0.000565315267423 1.72973433815e-05 0)
(0.000545583683111 1.75462234067e-05 0)
(0.000525650018571 1.75968432781e-05 0)
(0.000505727595354 1.74648394825e-05 0)
(0.000486010660232 1.71697209308e-05 0)
(0.000466670740941 1.67339690353e-05 0)
(0.000447854087867 1.61818469682e-05 0)
(0.000429680399506 1.55381030823e-05 0)
(0.000412242851382 1.48267501042e-05 0)
(0.000395609290061 1.40700585826e-05 0)
(0.00037982434475 1.32878412942e-05 0)
(0.000364912158753 1.2497044037e-05 0)
(0.000350879445504 1.17116119694e-05 0)
(0.000337718613558 1.09425735577e-05 0)
(0.000325410763979 1.01982756204e-05 0)
(0.000313928426955 9.48470686142e-06 0)
(0.000303237961872 8.80585882622e-06 0)
(0.000293301591341 8.16408672626e-06 0)
(0.000284079073081 7.56044585305e-06 0)
(0.00027552903535 6.99498984838e-06 0)
(0.000267610013642 6.46702531919e-06 0)
(0.000260281231402 5.9753224686e-06 0)
(0.000253503167538 5.51828490895e-06 0)
(0.000247237950731 5.09408331832e-06 0)
(0.000241449615974 4.70075844039e-06 0)
(0.00023610425378 4.3362986894e-06 0)
(0.000231170077313 3.99869740114e-06 0)
(0.000226617428008 3.68599399374e-06 0)
(0.000222418735912 3.3963028482e-06 0)
(0.000218548447404 3.12783294134e-06 0)
(0.000214982929713 2.8789009011e-06 0)
(0.000211700359086 2.64793955918e-06 0)
(0.000208680597165 2.43350389323e-06 0)
(0.000205905058226 2.23427587801e-06 0)
(0.000203356568157 2.04906977598e-06 0)
(0.000201019214493 1.87683925995e-06 0)
(0.00019887818513 1.71668798956e-06 0)
(0.000196919591679 1.56788541279e-06 0)
(0.000195130271416 1.4298901068e-06 0)
(0.000193497559542 1.30238357063e-06 0)
(0.000192009020664 1.18531850023e-06 0)
(0.000190652125226 1.07898702654e-06 0)
(0.000189413852897 9.84116696137e-07 0)
(0.000188280201517 9.02005122889e-07 0)
(0.00018723557868 8.34708700129e-07 0)
(0.000186262058401 7.8530599132e-07 0)
(0.000185338510181 7.58259811592e-07 0)
(0.000184439684342 7.59891487922e-07 0)
(0.000183535547307 7.98911569796e-07 0)
(0.000182591717455 8.86654445252e-07 0)
(0.00018157325017 1.03547994787e-06 0)
(0.000180458205044 1.24860989242e-06 0)
(0.000179265579104 1.46384010966e-06 0)
(0.00122477930302 0.000267976023 0)
(0.00124108714784 0.000383723255876 0)
(0.00119621827182 0.000347797848273 0)
(0.00111352419267 0.000284007314859 0)
(0.00102062830104 0.000225431427125 0)
(0.000931229764038 0.000178308308687 0)
(0.000850755357295 0.000141857214423 0)
(0.000780595247051 0.000113880521891 0)
(0.000720377366746 9.22978819592e-05 0)
(0.000669073499515 7.54692851127e-05 0)
(0.000625503455233 6.21778069647e-05 0)
(0.000588546421308 5.15382984705e-05 0)
(0.000557215872587 4.29084589313e-05 0)
(0.000530674094977 3.58193214442e-05 0)
(0.000508222224052 2.99248653949e-05 0)
(0.000489282175703 2.49665445762e-05 0)
(0.000473377555256 2.07485416445e-05 0)
(0.000460116314044 1.71204887707e-05 0)
(0.000449175983671 1.39653249487e-05 0)
(0.000440291498711 1.11906835618e-05 0)
(0.000433245313219 8.72271733362e-06 0)
(0.000427859438621 6.50161961153e-06 0)
(0.000423989045925 4.47833771956e-06 0)
(0.00042151732312 2.6121335684e-06 0)
(0.000420351332149 8.68753657759e-07 0)
(0.000420418658895 -7.8095636032e-07 0)
(0.000421664688929 -2.36210448514e-06 0)
(0.000424050375397 -3.89655693757e-06 0)
(0.000427550392671 -5.40355709833e-06 0)
(0.000432151585876 -6.90018993721e-06 0)
(0.000437851638153 -8.40171906136e-06 0)
(0.000444657887395 -9.92181417554e-06 0)
(0.000452586229337 -1.14726789528e-05 0)
(0.000461660046167 -1.30650827838e-05 0)
(0.00047190909949 -1.47082955335e-05 0)
(0.000483368324441 -1.64099203795e-05 0)
(0.000496076458414 -1.81756178928e-05 0)
(0.000510074434416 -2.00087133123e-05 0)
(0.000525403466433 -2.19096809939e-05 0)
(0.000542102754416 -2.3875504295e-05 0)
(0.000560206741569 -2.58989188032e-05 0)
(0.00057974186959 -2.79675610163e-05 0)
(0.000600722801599 -3.00630662394e-05 0)
(0.000623148121096 -3.2160186434e-05 0)
(0.000646995571036 -3.42260312921e-05 0)
(0.000672216970636 -3.62195671076e-05 0)
(0.00069873303583 -3.80915321441e-05 0)
(0.000726428423822 -3.97849306788e-05 0)
(0.000755147408066 -4.12362409107e-05 0)
(0.000784690646735 -4.23774042843e-05 0)
(0.000814813513379 -4.31385609368e-05 0)
(0.000845226397576 -4.34513755398e-05 0)
(0.000875597256234 -4.32526976729e-05 0)
(0.000905556524555 -4.24882569037e-05 0)
(0.000934704318671 -4.11161249484e-05 0)
(0.000962619718175 -3.91097609377e-05 0)
(0.000988871821861 -3.64605378262e-05 0)
(0.00101303220744 -3.31796797274e-05 0)
(0.00103468836699 -2.92995332855e-05 0)
(0.0010534576279 -2.48740976378e-05 0)
(0.00106900101883 -1.99787382302e-05 0)
(0.00108103647787 -1.47088785876e-05 0)
(0.00108935062283 -9.17713637599e-06 0)
(0.00109380795125 -3.50814552627e-06 0)
(0.0010943560207 2.16923672827e-06 0)
(0.00109102534137 7.73134418292e-06 0)
(0.00108392368593 1.306841151e-05 0)
(0.0010732259269 1.80902493148e-05 0)
(0.0010591615735 2.2727703289e-05 0)
(0.00104200233282 2.69305051174e-05 0)
(0.00102205128973 3.0663321241e-05 0)
(0.000999634234698 3.39018401931e-05 0)
(0.000975092820446 3.66300488823e-05 0)
(0.000948778812822 3.88390565697e-05 0)
(0.000921048660731 4.05272530729e-05 0)
(0.000892257811065 4.17012714652e-05 0)
(0.000862754515734 4.23771138973e-05 0)
(0.00083287322067 4.25808541976e-05 0)
(0.000802927908312 4.23485086824e-05 0)
(0.000773205927899 4.1724914176e-05 0)
(0.000743962868205 4.07617035015e-05 0)
(0.000715418917694 3.95146659541e-05 0)
(0.000687756960082 3.80408803444e-05 0)
(0.000661122426963 3.6396004029e-05 0)
(0.000635624728275 3.46320135975e-05 0)
(0.000611339941968 3.27955652151e-05 0)
(0.000588314378767 3.09270145422e-05 0)
(0.000566568638249 2.90600380189e-05 0)
(0.000546101819721 2.72217381169e-05 0)
(0.000526895623502 2.54330942487e-05 0)
(0.00050891815702 2.37096264149e-05 0)
(0.000492127332744 2.20621607191e-05 0)
(0.000476473804845 2.04976129809e-05 0)
(0.000461903436208 1.9019734119e-05 0)
(0.000448359317957 1.7629783429e-05 0)
(0.000435783382048 1.63271138223e-05 0)
(0.000424117656763 1.5109664951e-05 0)
(0.000413305217518 1.39743683783e-05 0)
(0.000403290883785 1.29174730129e-05 0)
(0.000394021708634 1.19348014362e-05 0)
(0.000385447301966 1.10219478665e-05 0)
(0.000377520022477 1.01744283558e-05 0)
(0.000370195067664 9.38779252213e-06 0)
(0.000363430485686 8.65770523552e-06 0)
(0.000357187128125 7.98000520629e-06 0)
(0.000351428558417 7.3507465946e-06 0)
(0.000346120927077 6.76622857902e-06 0)
(0.000341232821677 6.22301730771e-06 0)
(0.000336735096832 5.7179638915e-06 0)
(0.000332600687022 5.24822195194e-06 0)
(0.000328804402958 4.81126791189e-06 0)
(0.000325322710195 4.40492745314e-06 0)
(0.000322133486865 4.02741170222e-06 0)
(0.000319215755602 3.67736736641e-06 0)
(0.000316549383247 3.35394568626e-06 0)
(0.000314114740651 3.05689617769e-06 0)
(0.000311892314806 2.78669218164e-06 0)
(0.000309862267172 2.54469632723e-06 0)
(0.000308003938156 2.33337403605e-06 0)
(0.000306295311872 2.15656043549e-06 0)
(0.000304712486221 2.0197751477e-06 0)
(0.00030322925609 1.93054743644e-06 0)
(0.000301817041244 1.89862642999e-06 0)
(0.000300445626608 1.93571353357e-06 0)
(0.000299085602775 2.05369463045e-06 0)
(0.0002977140684 2.25843298153e-06 0)
(0.000296324867828 2.52989705915e-06 0)
(0.000294936300023 2.76374369009e-06 0)
(0.00122193085404 0.000221265871775 0)
(0.00125341263745 0.000382643791196 0)
(0.00125113697017 0.000396021868212 0)
(0.00121354281372 0.000356071540558 0)
(0.00115565422137 0.000304151694215 0)
(0.00108987316059 0.000254767647946 0)
(0.00102367024639 0.000212075205068 0)
(0.000961002988881 0.000176489908584 0)
(0.000903693746582 0.000147215628179 0)
(0.0008523604543 0.000123188709498 0)
(0.000806981482148 0.00010340741095 0)
(0.000767221739791 8.70254836213e-05 0)
(0.0007326144125 7.33591636288e-05 0)
(0.00070265865257 6.18661691734e-05 0)
(0.000676869531936 5.21190252097e-05 0)
(0.00065480145181 4.37805303628e-05 0)
(0.00063605715316 3.65834932425e-05 0)
(0.000620289186689 3.03147643109e-05 0)
(0.00060719766183 2.48029252419e-05 0)
(0.000596526364901 1.99088868699e-05 0)
(0.000588058361035 1.55187261394e-05 0)
(0.000581611649347 1.15382208102e-05 0)
(0.000577035139707 7.888663422e-06 0)
(0.000574205056163 4.50363949702e-06 0)
(0.00057302178568 1.32653501656e-06 0)
(0.000573407147325 -1.69139990159e-06 0)
(0.000575302033951 -4.59255123269e-06 0)
(0.000578664373554 -7.41410994691e-06 0)
(0.000583467357059 -1.01889788617e-05 0)
(0.000589697874252 -1.29464531261e-05 0)
(0.00059735510053 -1.57127098133e-05 0)
(0.000606449178687 -1.85111273094e-05 0)
(0.000616999938756 -2.13624456894e-05 0)
(0.000629035596715 -2.42847703278e-05 0)
(0.000642591369588 -2.72934155516e-05 0)
(0.000657707940291 -3.04005794665e-05 0)
(0.000674429701091 -3.36148392918e-05 0)
(0.000692802700496 -3.69404554182e-05 0)
(0.000712872216105 -4.03764770599e-05 0)
(0.000734679877103 -4.3915650193e-05 0)
(0.000758260267126 -4.75431454061e-05 0)
(0.000783636954096 -5.1235146878e-05 0)
(0.000810817921863 -5.49573794846e-05 0)
(0.0008397904228 -5.86636944082e-05 0)
(0.000870515333752 -6.22948859386e-05 0)
(0.000902921181147 -6.57779615171e-05 0)
(0.000936898101637 -6.90261251172e-05 0)
(0.000972292113615 -7.19397382565e-05 0)
(0.00100890017569 -7.44084783462e-05 0)
(0.00104646657679 -7.63148027099e-05 0)
(0.00108468121188 -7.75386571209e-05 0)
(0.00112318022594 -7.79631668525e-05 0)
(0.00116154935453 -7.74808790985e-05 0)
(0.00119933007747 -7.60000486899e-05 0)
(0.00123602848309 -7.34505119234e-05 0)
(0.00127112656826 -6.97888358051e-05 0)
(0.00130409559479 -6.50025698928e-05 0)
(0.00133441105811 -5.91134745538e-05 0)
(0.00136156875368 -5.21795746947e-05 0)
(0.00138510134374 -4.42958932115e-05 0)
(0.00140459478476 -3.55937670386e-05 0)
(0.00141970396972 -2.62384937383e-05 0)
(0.00143016679578 -1.64245003416e-05 0)
(0.00143581540453 -6.36673516194e-06 0)
(0.00143658278315 3.71235366635e-06 0)
(0.00143250297418 1.35986829826e-05 0)
(0.00142370435098 2.31013112413e-05 0)
(0.00141039732668 3.20620857927e-05 0)
(0.00139285931083 4.03581827666e-05 0)
(0.00137141986027 4.78986585911e-05 0)
(0.00134644791128 5.46180980659e-05 0)
(0.00131834157897 6.04703870797e-05 0)
(0.00128752001171 6.54244195881e-05 0)
(0.00125441638106 6.94622612047e-05 0)
(0.0012194711137 7.25794069187e-05 0)
(0.00118312473717 7.47862854267e-05 0)
(0.00114581009234 7.61099845825e-05 0)
(0.00110794406142 7.65952569222e-05 0)
(0.00106991928135 7.6304148549e-05 0)
(0.00103209649331 7.53139952686e-05 0)
(0.000994798191104 7.37139385964e-05 0)
(0.000958304091228 7.16004366645e-05 0)
(0.000922848706128 6.90724081827e-05 0)
(0.000888621031194 6.62266397877e-05 0)
(0.000855766120144 6.31539421772e-05 0)
(0.000824388164722 5.99363314517e-05 0)
(0.000794554624258 5.66453030919e-05 0)
(0.000766300956485 5.33411065825e-05 0)
(0.000739635558891 5.00728319969e-05 0)
(0.000714544614143 4.68790850694e-05 0)
(0.000690996623046 4.37890343449e-05 0)
(0.00066894649053 4.0823648309e-05 0)
(0.000648339097467 3.79969828354e-05 0)
(0.000629112341723 3.531742314e-05 0)
(0.000611199666757 3.27888204424e-05 0)
(0.000594532117903 3.04114930495e-05 0)
(0.00057903997815 2.81830812616e-05 0)
(0.000564654039571 2.60992597764e-05 0)
(0.000551306566027 2.41543185322e-05 0)
(0.000538931999115 2.23416277262e-05 0)
(0.000527467454104 2.06540034503e-05 0)
(0.000516853046544 1.90839907794e-05 0)
(0.000507032084166 1.76240793083e-05 0)
(0.000497951152869 1.62668650729e-05 0)
(0.000489560120258 1.50051704605e-05 0)
(0.000481812075467 1.38321325481e-05 0)
(0.000474663219803 1.27412683206e-05 0)
(0.000468072719172 1.17265244362e-05 0)
(0.000462002526105 1.07823178106e-05 0)
(0.000456417176505 9.90357299935e-06 0)
(0.000451283563953 9.08576157097e-06 0)
(0.000446570692391 8.32494883265e-06 0)
(0.000442249406451 7.61785301549e-06 0)
(0.000438292097445 6.96192251653e-06 0)
(0.00043467238256 6.35543680569e-06 0)
(0.000431364755223 5.79763690068e-06 0)
(0.00042834420684 5.28889052773e-06 0)
(0.00042558582522 4.83089504419e-06 0)
(0.000423064385172 4.42691520973e-06 0)
(0.0004207539652 4.08203941162e-06 0)
(0.000418627656437 3.8034076027e-06 0)
(0.000416657483609 3.60029812163e-06 0)
(0.000414814742783 3.4838147441e-06 0)
(0.000413071081145 3.46558784702e-06 0)
(0.00041140076737 3.55414723015e-06 0)
(0.00040978445801 3.74581642764e-06 0)
(0.00040821310739 4.00306001766e-06 0)
(0.00040668291928 4.20933416428e-06 0)
(0.00121694106695 0.000182393954229 0)
(0.00124912927412 0.000357845724936 0)
(0.00126578367723 0.000406441204689 0)
(0.0012560911131 0.000392938929427 0)
(0.00122582666427 0.000355437350336 0)
(0.00118329863202 0.000311791088469 0)
(0.00113505421613 0.000269499098645 0)
(0.00108546587216 0.000231321621091 0)
(0.00103721858495 0.000197940450463 0)
(0.000991841469892 0.000169174300575 0)
(0.000950116366682 0.000144525902057 0)
(0.000912360380338 0.000123422728903 0)
(0.000878612314709 0.000105317319887 0)
(0.000848752409583 8.97236875891e-05 0)
(0.000822577713678 7.62253340013e-05 0)
(0.000799848625305 6.44714018318e-05 0)
(0.000780316975879 5.41685827302e-05 0)
(0.000763742437219 4.50721939641e-05 0)
(0.000749901625946 3.6977846845e-05 0)
(0.000738592700091 2.97142042606e-05 0)
(0.000729637221462 2.31369084814e-05 0)
(0.000722880401414 1.71235883929e-05 0)
(0.000718190428415 1.15697975148e-05 0)
(0.000715457308739 6.38572838476e-06 0)
(0.00071459148157 1.49356411195e-06 0)
(0.000715522361732 -3.17465007217e-06 0)
(0.000718196890762 -7.67869578375e-06 0)
(0.000722578140101 -1.20715334168e-05 0)
(0.000728643981176 -1.64003593016e-05 0)
(0.000736385809737 -2.07073982685e-05 0)
(0.000745807302488 -2.50304642856e-05 0)
(0.000756923174796 -2.94033049138e-05 0)
(0.000769757899402 -3.38557356624e-05 0)
(0.00078434433837 -3.8413561732e-05 0)
(0.00080072223329 -4.30982781796e-05 0)
(0.000818936491833 -4.79265343261e-05 0)
(0.000839035202284 -5.29093461077e-05 0)
(0.000861067302436 -5.80510408968e-05 0)
(0.000885079826062 -6.33479259424e-05 0)
(0.000911114651009 -6.87866847716e-05 0)
(0.000939204679769 -7.43425294396e-05 0)
(0.000969369399498 -7.99771715162e-05 0)
(0.00100160979734 -8.56367242981e-05 0)
(0.00103590265274 -9.12497112748e-05 0)
(0.00107219429514 -9.67254287761e-05 0)
(0.00111039400473 -0.000101952982429 0)
(0.00115036734471 -0.000106801371184 0)
(0.00119192983715 -0.000111121002078 0)
(0.00123484151315 -0.000114746956248 0)
(0.00127880295491 -0.000117504168719 0)
(0.00132345346639 -0.000119214435426 0)
(0.00136837193213 -0.000119704862251 0)
(0.00141308074116 -0.000118817111107 0)
(0.00145705289426 -0.000116416678426 0)
(0.00149972214634 -0.000112401521948 0)
(0.00154049583684 -0.000106709580781 0)
(0.00157876996238 -9.93249549005e-05 0)
(0.00161394600111 -9.02825698265e-05 0)
(0.00164544892363 -7.96710779699e-05 0)
(0.00167274571347 -6.76337545321e-05 0)
(0.00169536368914 -5.43673131477e-05 0)
(0.00171290802156 -4.01184631647e-05 0)
(0.00172507779066 -2.51771325359e-05 0)
(0.00173167929041 -9.86422655634e-06 0)
(0.00173263428497 5.48744828235e-06 0)
(0.00172798068673 2.05569637899e-05 0)
(0.00171786465881 3.50576421109e-05 0)
(0.00170252586089 4.87515307148e-05 0)
(0.00168227960901 6.1452953192e-05 0)
(0.001657499771 7.30231197469e-05 0)
(0.00162860459411 8.3360702914e-05 0)
(0.00159604574681 9.23929007839e-05 0)
(0.00156029968835 0.000100069470985 0)
(0.00152186015001 0.000106360319822 0)
(0.00148123066503 0.000111256044134 0)
(0.00143891644905 0.000114770187153 0)
(0.00139541539395 0.000116941732302 0)
(0.00135120840362 0.000117836483002 0)
(0.00130674966981 0.000117546391671 0)
(0.00126245768493 0.000116186482715 0)
(0.00121870778664 0.000113889611018 0)
(0.00117582684587 0.000110799765337 0)
(0.00113409041103 0.000107064860266 0)
(0.00109372229521 0.00010282993894 0)
(0.00105489631949 9.82314893017e-05 0)
(0.00101773975116 9.33932660647e-05 0)
(0.00098233790848 8.84237076509e-05 0)
(0.000948739423597 8.3414808427e-05 0)
(0.000916961730505 7.84421721171e-05 0)
(0.000886996444607 7.35659243238e-05 0)
(0.000858814402075 6.88321749251e-05 0)
(0.000832370216677 6.42747694433e-05 0)
(0.000807606283505 5.99171295205e-05 0)
(0.000784456211963 5.57740433611e-05 0)
(0.000762847706525 5.18533185776e-05 0)
(0.000742704936279 4.81572506253e-05 0)
(0.0007239504464 4.46838889351e-05 0)
(0.000706506669447 4.14281026073e-05 0)
(0.000690297094193 3.83824591798e-05 0)
(0.000675247146345 3.55379365665e-05 0)
(0.000661284830483 3.28844905838e-05 0)
(0.000648341176659 3.04115008057e-05 0)
(0.00063635052908 2.81081159726e-05 0)
(0.000625250708406 2.59635183272e-05 0)
(0.000614983073842 2.39671237715e-05 0)
(0.000605492506277 2.21087326321e-05 0)
(0.000596727329445 2.0378643601e-05 0)
(0.000588639182306 1.87677417824e-05 0)
(0.000581182852622 1.72675701962e-05 0)
(0.000574316078972 1.58703930874e-05 0)
(0.000567999326114 1.4569258463e-05 0)
(0.000562195536802 1.3358066815e-05 0)
(0.000556869861777 1.22316525057e-05 0)
(0.00055198936888 1.11858840064e-05 0)
(0.000547522732246 1.02177885355e-05 0)
(0.000543439903654 9.32570546922e-06 0)
(0.000539711770895 8.50947018007e-06 0)
(0.000536309813304 7.77062442891e-06 0)
(0.000533205773571 7.11263821705e-06 0)
(0.000530371379344 6.54110604673e-06 0)
(0.000527778169725 6.06383767614e-06 0)
(0.000525397512124 5.69067973971e-06 0)
(0.000523200931036 5.43273925524e-06 0)
(0.000521160893668 5.30034944283e-06 0)
(0.000519252128333 5.29845467709e-06 0)
(0.00051745310298 5.41683652879e-06 0)
(0.000515745557305 5.61093188345e-06 0)
(0.000514106048024 5.77115755303e-06 0)
(0.00121286185244 0.000152591036673 0)
(0.0012418005457 0.000326521745274 0)
(0.00126598894079 0.000396922388503 0)
(0.00127248748803 0.000405651763811 0)
(0.00126154851502 0.000383927938159 0)
(0.00123780716191 0.000349569886185 0)
(0.00120609466402 0.000311677215257 0)
(0.001170238832 0.000274587681624 0)
(0.00113297122668 0.000240189284261 0)
(0.00109612965415 0.000209144156898 0)
(0.00106089186154 0.000181518944857 0)
(0.00102797078063 0.000157106757506 0)
(0.000997761745269 0.000135590397323 0)
(0.000970448561439 0.000116623705129 0)
(0.000946078070393 9.98705104555e-05 0)
(0.000924611728693 8.50216635591e-05 0)
(0.000905960838876 7.18008694465e-05 0)
(0.000890010322626 5.99649724662e-05 0)
(0.00087663454571 4.93016679362e-05 0)
(0.000865707672261 3.96261949491e-05 0)
(0.000857110279745 3.07778024322e-05 0)
(0.000850733435789 2.26163728884e-05 0)
(0.000846481065268 1.50193718309e-05 0)
(0.000844271175753 7.87917928399e-06 0)
(0.000844036328007 1.10080473835e-06 0)
(0.000845723610976 -5.40003679955e-06 0)
(0.000849294290329 -1.16985001778e-05 0)
(0.000854723248481 -1.78619192346e-05 0)
(0.000861998284542 -2.395083355e-05 0)
(0.000871119302485 -3.00197539077e-05 0)
(0.000882097400969 -3.61176839729e-05 0)
(0.000894953859226 -4.22884008527e-05 0)
(0.000909718998609 -4.85704900057e-05 0)
(0.000926430887054 -5.49971225789e-05 0)
(0.000945133842872 -6.15955575736e-05 0)
(0.000965876684603 -6.83863466458e-05 0)
(0.000988710665009 -7.53822182034e-05 0)
(0.00101368702016 -8.25866199104e-05 0)
(0.00104085405971 -8.99919082511e-05 0)
(0.00107025372351 -9.7577191698e-05 0)
(0.00110191753443 -0.000105305864953 0)
(0.00113586189127 -0.000113122917468 0)
(0.0011720826724 -0.000120952164077 0)
(0.0012105491649 -0.000128693627669 0)
(0.00125119740131 -0.000136221400519 0)
(0.00129392307949 -0.000143382408243 0)
(0.00133857436155 -0.000149996577001 0)
(0.00138494498903 -0.00015585892477 0)
(0.00143276829436 -0.000160744021649 0)
(0.00148171280194 -0.000164413056755 0)
(0.00153138015097 -0.000166623408493 0)
(0.00158130599306 -0.000167140193461 0)
(0.00163096430307 -0.000165748890745 0)
(0.00167977522235 -0.000162267958201 0)
(0.00172711622404 -0.000156560478473 0)
(0.00177233616105 -0.000148544230567 0)
(0.00181477168324 -0.000138199929178 0)
(0.00185376551359 -0.000125577440324 0)
(0.0018886860033 -0.000110799596891 0)
(0.00191894721312 -9.40632163768e-05 0)
(0.00194402873005 -7.56373311758e-05 0)
(0.00196349471659 -5.58587594311e-05 0)
(0.0019770118604 -3.51237538457e-05 0)
(0.00198436503625 -1.38722953835e-05 0)
(0.00198546771562 7.43781887697e-06 0)
(0.00198036334511 2.83645283644e-05 0)
(0.0019692159101 4.85134984025e-05 0)
(0.00195229192825 6.75584046859e-05 0)
(0.00192993913391 8.52450698835e-05 0)
(0.00190256696588 0.000101382949265 0)
(0.00187063138479 0.000115831569321 0)
(0.00183462385566 0.000128488348513 0)
(0.00179506299307 0.000139280883469 0)
(0.00175248722922 0.000148164151293 0)
(0.0017074472189 0.000155121652985 0)
(0.00166049718739 0.000160168774328 0)
(0.00161218499223 0.000163356347402 0)
(0.00156304122922 0.00016477257651 0)
(0.00151356814887 0.00016454207048 0)
(0.00146422937236 0.000162821525817 0)
(0.00141544137314 0.000159792427676 0)
(0.00136756744814 0.000155651777729 0)
(0.00132091452514 0.000150602169301 0)
(0.00127573275415 0.000144842479914 0)
(0.00123221751113 0.000138560129251 0)
(0.00119051325416 0.000131925412021 0)
(0.00115071861652 0.000125088000651 0)
(0.00111289216465 0.00011817540853 0)
(0.0010770583505 0.000111293033135 0)
(0.00104321330787 0.000104525343175 0)
(0.0010113302577 9.79377976249e-05 0)
(0.000981364384122 9.15791521799e-05 0)
(0.000953257117617 8.54838907317e-05 0)
(0.000926939814277 7.96745993598e-05 0)
(0.000902336855412 7.41641675589e-05 0)