/*--------------------------------*- C++ -*----------------------------------*\
  =========                 |
  \\      /  F ield         | OpenFOAM: The Open Source CFD Toolbox
   \\    /   O peration     | Website:  https://openfoam.org
    \\  /    A nd           | Version:  7
     \\/     M anipulation  |
\*---------------------------------------------------------------------------*/
FoamFile
{
    version     2.0;
    format      ascii;
    class       volScalarField;
    location    "300";
    object      Ci;
}
// * * * * * * * * * * * * * * * * * * * * * * * * * * * * * * * * * * * * * //

dimensions      [0 -3 0 0 1 0 0];

internalField   nonuniform List<scalar> 
8192
(
10.0000000384
9.99999986687
9.9999996181
9.99999929156
9.99999887257
9.99999836369
9.99999777061
9.99999710057
9.99999636177
9.99999556304
9.99999471254
9.99999381772
9.99999288443
9.9999919177
9.99999092102
9.99998989747
9.99998884896
9.99998777745
9.99998668403
9.99998557026
9.99998443698
9.99998328583
9.99998211782
9.99998093498
9.99997973873
9.9999785317
9.9999773158
9.99997609429
9.99997486955
9.99997364537
9.99997242443
9.99997121084
9.99997000739
9.99996881832
9.99996764649
9.99996649629
9.99996537092
9.99996427542
9.99996321395
9.99996219302
9.99996121853
9.99996029909
9.99995944258
9.99995865923
9.9999579578
9.99995734786
9.9999568361
9.99995642776
9.9999561239
9.99995592233
9.99995581714
9.9999557993
9.99995585939
9.99995598699
9.99995617617
9.999956422
9.99995672426
9.99995708687
9.99995752309
9.99995804402
9.99995866856
9.99995940989
9.99996028624
9.9999613058
9.99996247918
9.99996380509
9.99996528375
9.99996690327
9.9999686523
9.9999705072
9.99997244361
9.99997442682
9.99997642382
9.99997839929
9.99998032452
9.99998217413
9.99998393249
9.9999855911
9.99998714973
9.99998861353
9.99998999031
9.99999128955
9.99999251878
9.99999368571
9.99999479454
9.9999958502
9.99999685414
9.99999780945
9.99999871601
9.99999957569
10.0000003873
10.0000011515
10.0000018661
10.0000025308
10.0000031427
10.0000037009
10.0000042026
10.0000046478
10.0000050357
10.0000053671
10.0000056413
10.0000058599
10.0000060236
10.0000061354
10.000006197
10.0000062123
10.0000061841
10.0000061163
10.0000060118
10.0000058747
10.0000057073
10.0000055134
10.0000052951
10.0000050556
10.0000047969
10.0000045219
10.0000042326
10.0000039321
10.0000036221
10.0000033052
10.0000029823
10.0000026534
10.0000023157
10.0000019649
10.0000015956
10.0000012098
10.0000008322
10.0000005465
9.99999997678
9.99999976699
9.99999953423
9.99999925899
9.99999891498
9.99999849215
9.99999798784
9.99999740473
9.99999674889
9.99999602831
9.99999525119
9.99999442539
9.99999355757
9.99999265351
9.99999171765
9.99999075385
9.99998976486
9.9999887533
9.99998772097
9.99998666993
9.99998560163
9.99998451807
9.99998342078
9.99998231208
9.99998119385
9.99998006892
9.99997893966
9.99997780945
9.99997668116
9.99997555858
9.99997444499
9.99997334431
9.99997226004
9.99997119597
9.99997015575
9.99996914294
9.99996816149
9.99996721508
9.99996630826
9.99996544556
9.99996463249
9.99996387499
9.99996317943
9.9999625527
9.999962001
9.9999615301
9.99996114377
9.99996084368
9.99996062868
9.99996049431
9.99996043407
9.99996043857
9.99996049927
9.99996060666
9.99996075563
9.99996094183
9.99996116685
9.99996143285
9.99996174888
9.99996212308
9.9999625692
9.9999630979
9.99996372323
9.99996445379
9.99996529942
9.99996626318
9.99996734824
9.99996855044
9.99996986446
9.99997127717
9.99997277323
9.99997433049
9.99997592607
9.99997753459
9.99997913379
9.99998070331
9.99998222856
9.9999836996
9.99998511226
9.99998646621
9.99998776377
9.99998900865
9.99999020415
9.99999135374
9.99999245916
9.99999352251
9.99999454396
9.99999552462
9.99999646368
9.99999736157
9.99999821672
9.99999902879
9.99999979543
10.0000005155
10.0000011861
10.0000018057
10.0000023715
10.0000028822
10.0000033391
10.000003741
10.0000040865
10.0000043763
10.0000046108
10.0000047922
10.0000049223
10.0000050043
10.0000050408
10.0000050354
10.0000049911
10.0000049114
10.0000047991
10.0000046575
10.0000044889
10.0000042965
10.0000040823
10.0000038492
10.0000035994
10.0000033356
10.00000306
10.0000027751
10.0000024819
10.0000021806
10.000001869
10.0000015428
10.0000011961
10.0000008263
10.000000445
10.0000001134
9.99999997493
9.99999976619
9.99999955767
9.99999932828
9.99999905775
9.9999987359
9.99999835618
9.99999791558
9.99999741393
9.99999685384
9.9999962393
9.99999557557
9.99999486781
9.99999412152
9.99999334132
9.99999253192
9.99999169693
9.99999084017
9.99998996441
9.99998907294
9.99998816805
9.99998725286
9.9999863296
9.99998540156
9.99998447116
9.99998354207
9.99998261713
9.99998170037
9.99998079521
9.99997990577
9.99997903615
9.99997819004
9.99997737231
9.99997658554
9.99997583547
9.99997512306
9.99997445485
9.99997383039
9.99997325649
9.99997273239
9.99997226424
9.99997185225
9.99997150102
9.99997121177
9.99997098692
9.99997082698
9.9999707314
9.99997069736
9.99997072035
9.99997079259
9.99997090573
9.99997104793
9.99997120972
9.99997137888
9.99997154907
9.99997171192
9.99997186728
9.99997201244
9.99997215365
9.99997229343
9.99997244293
9.99997260817
9.99997280235
9.99997303179
9.9999733081
9.99997363518
9.99997402115
9.99997446702
9.999974977
9.99997554896
9.99997618241
9.99997687133
9.99997761063
9.99997839216
9.9999792091
9.99998005407
9.99998092105
9.9999818055
9.99998270372
9.99998361396
9.99998453359
9.9999854615
9.99998639435
9.99998733045
9.99998826549
9.99998919733
9.9999901213
9.99999103527
9.99999193461
9.99999281729
9.99999367874
9.99999451678
9.99999532669
9.99999610595
9.99999684974
9.99999755535
9.99999821825
9.99999883603
9.99999940568
9.99999992621
10.0000003953
10.0000008128
10.0000011779
10.0000014918
10.000001755
10.0000019697
10.0000021375
10.0000022613
10.0000023431
10.0000023863
10.0000023929
10.000002366
10.0000023077
10.000002221
10.0000021078
10.0000019709
10.0000018123
10.0000016349
10.0000014406
10.0000012323
10.0000010114
10.0000007792
10.0000005343
10.0000002745
9.99999999411
9.99999969149
9.99999936736
9.9999990488
9.99999997788
9.9999997838
9.99999959393
9.99999939645
9.99999917483
9.99999892167
9.99999863202
9.99999830258
9.99999793163
9.99999751898
9.9999970655
9.99999657318
9.99999604455
9.99999548287
9.99999489148
9.99999427409
9.9999936342
9.99999297552
9.99999230146
9.9999916156
9.99999092121
9.99999022185
9.99998952083
9.99998882177
9.99998812829
9.99998744406
9.99998677337
9.99998611962
9.99998548827
9.99998488158
9.99998430714
9.99998376433
9.99998326429
9.99998280118
9.99998239123
9.99998202135
9.99998171328
9.99998144694
9.99998124718
9.99998109078
9.99998100046
9.99998095582
9.99998097221
9.99998103586
9.99998115299
9.99998131529
9.99998152163
9.99998176485
9.99998203881
9.9999823341
9.9999826411
9.99998294784
9.99998324337
9.99998351575
9.999983756
9.99998395564
9.99998411025
9.99998421648
9.99998427486
9.9999842869
9.99998425743
9.99998419189
9.99998409773
9.99998398147
9.99998384964
9.99998370685
9.99998355746
9.99998340461
9.99998325212
9.99998310356
9.99998296334
9.99998283537
9.99998272448
9.99998263568
9.99998257547
9.99998255038
9.99998256785
9.99998263497
9.99998275892
9.99998294536
9.99998319827
9.99998351906
9.99998390666
9.99998435801
9.99998486802
9.99998543088
9.99998603956
9.99998668732
9.99998736667
9.99998807091
9.99998879273
9.99998952569
9.99999026273
9.99999099768
9.99999172376
9.99999243517
9.99999312571
9.99999379027
9.99999442375
9.99999502238
9.99999558249
9.99999610172
9.99999657789
9.9999970101
9.99999739759
9.99999774078
9.99999804004
9.99999829673
9.99999851202
9.9999986878
9.99999882565
9.9999989277
9.99999899566
9.99999903173
9.99999903766
9.99999901571
9.99999896773
9.99999889612
9.99999880295
9.99999869078
9.99999856153
9.99999841735
9.99999825838
9.99999808527
9.99999789304
9.99999768567
9.999997448
9.99999722556
9.99999997977
9.99999979804
9.99999962348
9.99999944542
9.99999925196
9.99999903864
9.99999880248
9.99999854165
9.99999825479
9.99999794148
9.99999760174
9.99999723628
9.99999684614
9.99999643299
9.99999599871
9.99999554574
9.9999950766
9.99999459423
9.99999410154
9.9999936018
9.99999309819
9.99999259416
9.99999209325
9.9999915989
9.99999111534
9.99999064551
9.99999019516
9.99998976535
9.99998936534
9.99998899118
9.99998865956
9.99998835567
9.99998811029
9.99998788897
9.99998774509
9.99998761557
9.9999875822
9.99998755088
9.9999876273
9.99998769801
9.99998787341
9.99998804571
9.99998830372
9.99998856941
9.99998889409
9.99998923569
9.99998961214
9.99999000501
9.99999041381
9.99999082794
9.99999123986
9.99999163901
9.99999201583
9.99999235958
9.99999266173
9.99999291384
9.99999311077
9.99999324804
9.99999332465
9.99999334043
9.99999329851
9.99999320261
9.99999305855
9.99999287051
9.99999264198
9.99999237305
9.99999206274
9.99999170824
9.99999130782
9.9999908605
9.99999036781
9.99998983291
9.99998926179
9.99998866306
9.99998804831
9.99998743121
9.99998682693
9.99998625161
9.99998572123
9.99998525082
9.99998485281
9.99998453697
9.99998430926
9.99998417299
9.999984128
9.99998417245
9.99998430189
9.99998451117
9.99998479336
9.99998514147
9.99998554732
9.99998600302
9.99998649982
9.99998702956
9.99998758347
9.99998815359
9.99998873169
9.99998931054
9.99998988295
9.99999044295
9.99999098487
9.99999150427
9.9999919971
9.99999246055
9.99999289211
9.9999932904
9.99999365421
9.99999398329
9.99999427744
9.99999453716
9.9999947629
9.99999495567
9.99999511631
9.99999524613
9.99999534623
9.99999541814
9.99999546323
9.99999548336
9.99999548014
9.9999954559
9.9999954122
9.99999535197
9.99999527484
9.9999951858
9.99999507538
9.99999496491
9.99999480014
9.99999472068
9.99999998013
9.99999980957
9.99999964556
9.999999481
9.99999930538
9.9999991159
9.99999891123
9.99999869072
9.99999845415
9.99999820137
9.99999793255
9.99999764815
9.99999734879
9.99999703543
9.99999670924
9.99999637176
9.99999602473
9.99999567024
9.99999531053
9.99999494812
9.99999458574
9.99999422606
9.99999387255
9.99999352749
9.99999319589
9.99999287807
9.99999258302
9.99999230506
9.99999206309
9.99999183619
9.99999166595
9.99999149786
9.99999141962
9.99999131297
9.99999134582
9.99999129887
9.99999145407
9.99999146579
9.99999173707
9.99999181429
9.99999217248
9.99999233041
9.99999273268
9.99999298236
9.99999339451
9.99999372686
9.99999413762
9.99999452329
9.99999493366
9.99999533758
9.99999573965
9.99999612877
9.99999649818
9.99999683894
9.99999714324
9.99999740386
9.99999761532
9.99999777416
9.99999787863
9.99999792989
9.99999793068
9.99999788714
9.99999780547
9.99999769219
9.99999754901
9.99999737432
9.99999716062
9.99999689884
9.99999657808
9.9999961898
9.99999572764
9.99999518867
9.99999457351
9.99999388695
9.9999931387
9.99999234131
9.99999151075
9.99999066415
9.9999898209
9.99998899936
9.99998821739
9.99998748972
9.99998682894
9.99998624437
9.99998574298
9.99998532899
9.99998500457
9.99998476974
9.99998462273
9.99998456025
9.99998457751
9.99998466869
9.99998482688
9.99998504462
9.99998531373
9.999985626
9.99998597294
9.99998634648
9.99998673863
9.99998714216
9.99998755027
9.99998795705
9.99998835716
9.99998874623
9.99998912041
9.99998947677
9.99998981278
9.99999012672
9.99999041714
9.99999068321
9.99999092428
9.99999114015
9.99999133075
9.99999149637
9.99999163731
9.99999175431
9.99999184802
9.99999191969
9.99999197025
9.99999200181
9.99999201487
9.99999201361
9.99999199456
9.99999196992
9.99999191632
9.99999188767
9.99999176078
9.99999182384
9.99999998256
9.99999982111
9.99999966535
9.99999950915
9.99999934414
9.9999991688
9.99999898279
9.99999878625
9.99999857945
9.99999836284
9.99999813665
9.99999790136
9.99999765747
9.99999740571
9.99999714688
9.9999968821
9.99999661255
9.99999633978
9.99999606541
9.99999579132
9.99999551964
9.99999525225
9.99999499235
9.99999474065
9.99999450333
9.99999427645
9.99999407482
9.99999388045
9.99999373118
9.99999357263
9.99999349826
9.99999336997
9.9999934013
9.99999328454
9.99999345994
9.99999332389
9.99999367915
9.99999349525
9.99999403861
9.99999380975
9.99999449147
9.99999427623
9.99999498552
9.99999487992
9.99999549896
9.99999556868
9.99999605085
9.99999627842
9.99999666332
9.99999697529
9.99999732093
9.99999765067
9.99999797383
9.99999827902
9.9999985594
9.99999880721
9.99999901587
9.99999918065
9.99999929882
9.99999937101
9.99999940107
9.99999939709
9.99999936944
9.99999932842
9.99999927955
9.99999922124
9.99999914427
9.99999903481
9.99999887665
9.99999865457
9.99999835643
9.9999979744
9.99999750468
9.99999694867
9.99999631306
9.99999560742
9.99999484404
9.9999940369
9.99999320139
9.99999235293
9.99999150629
9.99999067483
9.99998987067
9.99998910449
9.99998838613
9.99998772438
9.99998712605
9.99998659663
9.99998613985
9.99998575793
9.99998545128
9.99998521881
9.99998505775
9.99998496416
9.99998493281
9.99998495776
9.99998503235
9.99998514969
9.99998530272
9.99998548461
9.99998568877
9.99998590913
9.9999861401
9.99998637673
9.99998661465
9.99998685013
9.99998707995
9.99998730147
9.99998751247
9.9999877112
9.99998789621
9.99998806644
9.99998822104
9.99998835949
9.9999884814
9.99998858678
9.99998867561
9.99998874861
9.9999888058
9.99998884943
9.99998887804
9.9999888983
9.99998890061
9.99998890861
9.99998887623
9.99998890207
9.99998877847
9.99998894687
9.99999998384
9.99999982951
9.99999968027
9.99999953057
9.99999937273
9.99999920615
9.99999903132
9.99999884899
9.99999865986
9.99999846465
9.9999982638
9.99999805776
9.99999784694
9.99999763195
9.99999741332
9.99999719196
9.99999696858
9.99999674452
9.99999652064
9.99999629872
9.99999607987
9.99999586592
9.99999565902
9.99999545933
9.99999527319
9.99999509332
9.99999494001
9.99999478199
9.99999468007
9.99999453686
9.99999451764
9.99999436342
9.99999448069
9.99999425788
9.99999459757
9.99999420853
9.99999488503
9.99999420867
9.99999532338
9.99999428254
9.99999583034
9.99999450169
9.99999627413
9.99999494614
9.99999656272
9.99999560869
9.99999674932
9.99999635513
9.999996999
9.9999970424
9.99999741065
9.99999764555
9.99999793262
9.99999819918
9.99999845446
9.99999868535
9.99999888428
9.99999904423
9.99999915993
9.99999923134
9.99999926208
9.99999926374
9.99999925067
9.99999924064
9.99999924376
9.99999926301
9.99999928763
9.99999930261
9.99999928578
9.99999921746
9.99999907968
9.99999886309
9.99999856194
9.99999817504
9.99999770814
9.99999716958
9.99999657073
9.99999592233
9.99999523709
9.99999452545
9.99999379774
9.99999306156
9.99999232461
9.99999159352
9.99999087578
9.99999017873
9.99998951026
9.99998887757
9.99998828783
9.99998774692
9.99998725921
9.99998682761
9.99998645356
9.99998613704
9.99998587659
9.99998566962
9.99998551246
9.9999854008
9.99998532976
9.99998529427
9.99998528919
9.99998530954
9.99998535056
9.9999854079
9.99998547753
9.99998555593
9.9999856399
9.99998572672
9.99998581399
9.99998589969
9.99998598206
9.99998605966
9.99998613124
9.99998619589
9.99998625274
9.99998630144
9.99998634135
9.99998637306
9.9999863955
9.99998641166
9.99998641736
9.99998642307
9.999986411
9.99998641872
9.99998637443
9.99998642056
9.99998627696
9.99998649471
9.99999998563
9.99999983516
9.99999968856
9.99999954237
9.99999938907
9.99999922824
9.9999990607
9.99999888745
9.99999870944
9.99999852745
9.99999834211
9.99999815382
9.99999796286
9.99999776984
9.99999757493
9.99999737913
9.99999718241
9.99999698651
9.99999679092
9.99999659849
9.99999640786
9.99999622321
9.99999604251
9.99999587009
9.99999570614
9.99999554897
9.99999541266
9.99999526852
9.99999517991
9.99999503296
9.99999503234
9.99999483653
9.99999500503
9.99999465567
9.99999514759
9.99999444331
9.99999551941
9.99999413977
9.99999615702
9.99999372556
9.99999699468
9.99999331873
9.99999777745
9.99999322329
9.99999812511
9.99999375062
9.99999786362
9.99999484662
9.99999732743
9.99999602883
9.99999708087
9.99999690087
9.99999730454
9.99999750266
9.99999776064
9.99999799268
9.99999820243
9.99999837365
9.99999849794
9.99999857323
9.99999860466
9.99999860074
9.99999857197
9.99999853349
9.99999850474
9.99999849994
9.99999852368
9.99999856844
9.99999861512
9.99999863381
9.99999859992
9.99999849651
9.99999831531
9.99999805454
9.99999772096
9.99999732638
9.99999688407
9.999996406
9.99999590245
9.99999538058
9.99999484441
9.99999429543
9.99999373412
9.99999316134
9.99999257916
9.99999199128
9.99999140292
9.9999908203
9.99999025039
9.99998970005
9.99998917576
9.99998868295
9.99998822548
9.99998780605
9.99998742604
9.99998708567
9.99998678409
9.99998651963
9.99998628993
9.99998609222
9.99998592342
9.99998578037
9.99998565989
9.99998555892
9.99998547454
9.99998540406
9.99998534503
9.99998529521
9.99998525262
9.99998521548
9.99998518226
9.99998515159
9.99998512228
9.99998509338
9.99998506396
9.99998503358
9.99998500131
9.99998496786
9.99998493126
9.99998489548
9.99998485372
9.99998482032
9.99998476988
9.99998475194
9.99998467479
9.99998471019
9.99998453815
9.99998475096
9.99999998696
9.99999983778
9.99999969332
9.99999954873
9.99999939737
9.99999923937
9.99999907583
9.99999890789
9.99999873655
9.9999985626
9.99999838662
9.99999820908
9.99999802995
9.99999785003
9.99999766883
9.99999748796
9.99999730597
9.99999712616
9.99999694506
9.99999676915
9.99999659109
9.9999964227
9.99999625042
9.99999609349
9.99999593111
9.99999578833
9.99999564375
9.99999551238
9.99999540328
9.99999526571
9.99999523268
9.99999503668
9.99999516993
9.99999478982
9.99999528106
9.99999444507
9.99999568029
9.99999385437
9.99999653841
9.99999281914
9.99999800556
9.99999125181
9.99999994932
9.99998953838
10.0000016114
9.99998872924
10.000001811
9.99998983205
10.0000001523
9.99999246596
9.99999792042
9.99999495169
9.99999674806
9.99999631166
9.99999676395
9.99999695917
9.99999719252
9.99999737453
9.99999751521
9.9999976261
9.99999769221
9.99999764139
9.99999738341
9.99999689877
9.99999628653
9.99999572598
9.99999537774
9.99999532318
9.99999553015
9.99999589059
9.99999627778
9.99999659482
9.99999678722
9.99999683474
9.99999674926
9.99999655785
9.99999629303
9.99999598115
9.99999564487
9.99999529722
9.99999494532
9.99999458847
9.99999422369
9.99999384584
9.99999345165
9.99999303899
9.99999260875
9.99999216329
9.99999170694
9.9999912447
9.99999078231
9.99999032554
9.99998987987
9.99998945031
9.99998904009
9.99998865211
9.9999882883
9.99998794955
9.99998763583
9.99998734636
9.99998707975
9.99998683427
9.99998660797
9.99998639889
9.99998620511
9.99998602485
9.9999858565
9.99998569863
9.99998554998
9.99998540944
9.99998527604
9.99998514892
9.99998502732
9.99998491059
9.99998479806
9.99998468951
9.99998458399
9.99998448248
9.99998438254
9.99998428887
9.99998419307
9.9999841118
9.99998401556
9.99998395942
9.99998384427
9.99998384818
9.99998365242
9.9999838215
9.99999998746
9.99999983633
9.99999968866
9.99999954336
9.99999939268
9.99999923636
9.99999907541
9.99999891097
9.99999874395
9.99999857521
9.99999840506
9.99999823422
9.9999980621
9.99999789011
9.99999771652
9.99999754445
9.99999736977
9.99999719931
9.99999702389
9.99999685775
9.99999668169
9.99999652388
9.99999634694
9.99999620263
9.99999602466
9.99999589895
9.99999572222
9.99999561593
9.99999545155
9.99999535142
9.99999523256
9.99999509307
9.99999509759
9.99999481094
9.99999509969
9.99999443947
9.99999534149
9.99999382091
9.99999606083
9.99999257787
9.99999776536
9.999990042
10.0000011349
9.99998568481
10.0000061414
9.99998046033
10.0000105975
9.99997773939
10.0000106792
9.9999807283
10.0000053522
9.99998768362
9.99999905621
9.99999324161
9.99999613538
9.99999552719
9.99999595826
9.99999613216
9.9999964825
9.99999688195
9.99999674864
9.99999507217
9.99999108341
9.99998497753
9.99997811225
9.99997235189
9.99996918698
9.99996913028
9.99997170805
9.99997587782
9.99998052344
9.99998480645
9.999988273
9.99999079548
9.99999246406
9.99999346851
9.99999400743
9.99999424231
9.99999428791
9.9999942184
9.99999407858
9.99999389485
9.9999936817
9.99999344572
9.99999318771
9.99999290609
9.99999259965
9.99999227032
9.99999192348
9.99999156734
9.99999121077
9.99999086174
9.99999052576
9.99999020554
9.9999899015
9.99998961151
9.9999893319
9.99998905998
9.99998879347
9.99998853087
9.99998827136
9.99998801485
9.99998776169
9.99998751257
9.99998726829
9.99998702963
9.9999867973
9.99998657181
9.99998635357
9.99998614272
9.99998593936
9.99998574333
9.99998555453
9.99998537263
9.99998519742
9.9999850287
9.99998486594
9.9999847099
9.99998455857
9.99998441625
9.99998427509
9.99998415084
9.99998401562
9.99998392096
9.99998377549
9.99998373992
9.99998353327
9.99998363969
9.99999998869
9.99999983355
9.99999968378
9.99999953545
9.99999938229
9.99999922467
9.99999906359
9.99999890012
9.99999873488
9.99999856876
9.99999840159
9.99999823446
9.99999806589
9.99999789835
9.99999772814
9.99999756102
9.9999973885
9.99999722352
9.99999704739
9.99999688785
9.99999670552
9.99999655716
9.99999636389
9.99999623569
9.99999602413
9.9999959279
9.99999569003
9.99999563576
9.99999537136
9.99999535315
9.99999509034
9.99999505843
9.99999488654
9.99999471348
9.99999480686
9.99999428391
9.99999487195
9.99999376194
9.9999950895
9.99999305212
9.99999574749
9.99999142153
9.99999821003
9.9999866683
10.0000053047
9.99997597716
10.0000184821
9.99996101964
10.0000316237
9.99995249098
10.0000320575
9.99996081095
10.0000169836
9.99997897283
10.0000013471
9.99999113762
9.99999484697
9.99999492339
9.99999693011
9.99999611743
9.99998555267
9.9999576671
9.99991019014
9.99984987105
9.99979090398
9.99974833578
9.99973179901
9.9997421697
9.99977305939
9.99981497884
9.99985881415
9.99989804593
9.99992942982
9.99995241006
9.99996807481
9.99997816652
9.99998441903
9.99998822631
9.99999056713
9.99999204603
9.99999299953
9.99999360465
9.99999397103
9.99999418567
9.99999432547
9.99999444563
9.99999457079
9.99999469289
9.99999478197
9.99999480013
9.99999471616
9.99999451329
9.99999419258
9.99999376908
9.99999326851
9.99999271888
9.99999214929
9.99999158099
9.99999103148
9.99999051237
9.99999002987
9.99998958599
9.99998917968
9.99998880793
9.99998846677
9.99998815184
9.999987859
9.99998758441
9.99998732493
9.99998707781
9.99998684113
9.99998661309
9.99998639284
9.99998617917
9.99998597209
9.99998577075
9.99998557564
9.99998538653
9.99998520341
9.9999850284
9.99998485751
9.99998470142
9.99998454069
9.99998441387
9.99998425161
9.99998417763
9.99998397539
9.99998401622
9.99999998789
9.99999982594
9.99999966801
9.99999951532
9.9999993595
9.9999992003
9.99999903841
9.99999887495
9.99999871015
9.99999854514
9.99999837907
9.9999982137
9.99999804626
9.99999788089
9.99999771109
9.99999754648
9.9999973725
9.99999721068
9.99999702926
9.99999687482
9.9999966798
9.99999654184
9.99999632174
9.99999621684
9.99999595161
9.9999959068
9.99999556599
9.99999561761
9.99999516721
9.99999534387
9.99999477893
9.99999504623
9.99999447399
9.99999462119
9.99999439377
9.99999390918
9.99999467772
9.99999285583
9.9999951768
9.9999919009
9.99999508639
9.99999203131
9.99999366352
9.99999274992
9.99999388856
9.99998730253
10.0000064741
9.99996300782
10.0000411938
9.99992033822
10.0000812156
9.99989380873
10.000083455
9.99991790626
10.0000424942
9.99996255923
10.0000051893
9.99999820971
9.99999898418
9.99994311458
9.9997843443
9.99948841721
9.99907221943
9.9986113452
9.99821259478
9.99796787914
9.99792352946
9.99806514142
9.99833651438
9.99866984329
9.99900428421
9.99929748091
9.99952933762
9.99969791106
9.9998120593
9.99988475654
9.99992865705
9.99995402514
9.99996830173
9.99997641957
9.9999813178
9.99998448159
9.99998647279
9.99998741085
9.99998732977
9.99998636948
9.99998481117
9.99998301705
9.99998133844
9.99998004279
9.99997927875
9.99997907876
9.99997938549
9.99998008743
9.99998105237
9.99998215298
9.99998328116
9.99998435717
9.99998532462
9.9999861524
9.99998682898
9.99998735616
9.99998774429
9.9999880085
9.99998816595
9.99998823386
9.99998822855
9.99998816444
9.99998805442
9.99998790893
9.99998773738
9.99998754652
9.99998734319
9.99998713109
9.99998691569
9.99998669809
9.99998648343
9.99998627064
9.99998606512
9.99998586455
9.99998567349
9.99998549204
9.99998531708
9.99998516391
9.99998499821
9.99998489049
9.99998470679
9.99998468774
9.99999998903
9.99999981895
9.9999996555
9.99999949598
9.99999933398
9.99999917002
9.99999900463
9.99999883886
9.99999867236
9.99999850647
9.99999833945
9.99999817384
9.99999800541
9.99999784007
9.99999766843
9.99999750397
9.99999732618
9.99999716492
9.99999697586
9.99999682367
9.99999661363
9.99999648335
9.99999623328
9.99999615119
9.99999582429
9.99999584078
9.99999536947
9.99999557316
9.99999484623
9.99999537014
9.99999424251
9.99999522191
9.99999361282
9.99999499752
9.99999320449
9.99999428414
9.99999361304
9.99999231646
9.99999562071
9.99998858192
9.99999890291
9.9999849119
9.99999940129
9.99998760647
9.99998979763
10.0000014242
9.99997367583
10.0000077591
9.99998836782
9.99995557054
10.0000814121
9.99983022702
10.0002057126
9.99975181645
10.0002051172
9.99981959883
10.0001277311
9.99996720603
9.99979699868
9.99904572052
9.99757687903
9.99532283926
9.99255405837
9.98981255371
9.98769266394
9.98661689949
9.98674476975
9.98790061364
9.98972125953
9.99183019943
9.99390113953
9.99570496493
9.99713323333
9.99817760931
9.99889070058
9.99934971299
9.99963055407
9.9997945067
9.9998855562
9.99993344539
9.99995787835
9.99997158567
9.99998212103
9.99999306348
10.0000051725
10.000017575
10.0000288238
10.0000376393
10.0000432848
10.0000456309
10.0000450314
10.0000421259
10.0000376512
10.0000323022
10.000026652
10.0000211223
10.0000159878
10.0000113991
10.0000074146
10.0000040259
10.0000011867
9.99999883172
9.99999688952
9.99999529015
9.9999939703
9.999992875
9.99999195866
9.99999118368
9.99999052087
9.99998994617
9.99998944258
9.9999889947
9.99998859405
9.99998822962
9.99998789933
9.99998759306
9.99998731461
9.99998705165
9.99998681467
9.99998658635
9.99998638505
9.9999861869
9.99998601692
9.99998584848
9.99998570163
9.99998556921
9.99998542348
9.99998535252
9.99999998714
9.99999980659
9.99999963141
9.99999946473
9.99999929743
9.99999912924
9.99999896028
9.99999879164
9.99999862258
9.99999845462
9.99999828539
9.99999811798
9.99999794719
9.99999777994
9.99999760525
9.99999743837
9.99999725627
9.9999970917
9.99999689629
9.99999673969
9.99999651994
9.99999638481
9.99999611856
9.99999603503
9.99999567626
9.99999570923
9.99999516232
9.99999544677
9.99999451909
9.99999532018
9.99999365107
9.99999543616
9.99999244595
9.9999958675
9.99999092412
9.99999636768
9.99998971051
9.99999568171
9.99999090331
9.99999071282
9.99999833663
9.99997777337
10.0000134694
9.99996083945
10.000022869
9.99996541241
9.9999910139
10.0000258266
9.99990735428
10.000099121
9.99989305323
9.99998943018
10.0001652491
9.99959042672
10.0005286059
9.99946548399
10.0006540863
9.99889672645
9.99673492565
9.99056912833
9.9810322048
9.96820600047
9.95407069447
9.94141567677
9.93267187443
9.92923721462
9.93148425038
9.93824809245
9.94772184296
9.95831228521
9.9686404598
9.97768136434
9.98492388074
9.99029944053
9.99402333691
9.99644993679
9.99795484117
9.99885571488
9.99938073611
9.99967525814
9.99982630508
9.9998872225
9.9998940301
9.9998731231
9.99984368179
9.99981822825
9.99980327404
9.99980058229
9.99980878858
9.99982495845
9.99984578495
9.99986833504
9.99989039413
9.99991052787
9.99992798096
9.99994251073
9.9999542143
9.99996338427
9.99997039865
9.99997565265
9.99997950919
9.99998228562
9.99998424503
9.99998559728
9.99998650569
9.99998709362
9.99998745392
9.99998765329
9.99998774202
9.99998775314
9.99998771418
9.99998763849
9.99998754365
9.99998743014
9.99998731427
9.99998718512
9.99998706503
9.99998692894
9.99998681328
9.9999866721
9.99998656616
9.99998641825
9.99998632548
9.99998616761
9.99998608729
9.99998591781
9.99998583766
9.99998566867
9.99999998817
9.99999979666
9.99999961356
9.99999943732
9.99999926113
9.99999908553
9.99999891051
9.99999873689
9.99999856349
9.99999839165
9.99999821877
9.99999804772
9.99999787339
9.99999770203
9.99999752366
9.99999735133
9.9999971655
9.99999699276
9.99999679438
9.99999662437
9.99999640473
9.99999624619
9.99999598837
9.99999586267
9.99999553076
9.99999548842
9.9999950017
9.99999516178
9.99999433425
9.9999949751
9.99999338055
9.99999513357
9.99999183717
9.99999603399
9.99998918609
9.99999823931
9.99998492385
10.0000018539
9.99997987483
10.0000041846
9.99997977314
9.99999517656
9.9999994053
9.99995703421
10.0000534404
9.99989022543
10.00010885
9.99987719874
10.0000303261
10.0000801256
9.99969962118
10.0004541964
9.99950115097
10.0001074398
10.0005977407
9.99931881113
9.99973639738
9.98783184953
9.97194426472
9.9367093497
9.89187131835
9.83658747896
9.78135730205
9.73675760127
9.70961086912
9.70275176417
9.71693257651
9.74663874645
9.78478843689
9.82653116749
9.86744685535
9.90382277273
9.9336637554
9.95648175066
9.97277250063
9.98363763065
9.99044345233
9.99450506598
9.99687737624
9.99828546382
9.99916167845
9.99973200262
10.000103635
10.0003288459
10.0004408199
10.0004683277
10.0004386434
10.0003760083
10.0002997101
10.0002232743
10.0001548386
10.0000982416
10.0000543305
10.0000221526
9.9999998752
9.99998540739
9.99997676715
9.99997226133
9.99997054179
9.99997059313
9.99997168577
9.99997331469
9.9999751508
9.99997698887
9.99997871156
9.99998025743
9.99998160487
9.99998275034
9.99998370924
9.99998449389
9.99998513218
9.99998563282
9.99998603006
9.99998631829
9.99998654228
9.99998667209
9.99998677489
9.99998678141
9.99998680194
9.99998670321
9.99998667143
9.99998646994
9.99998641047
9.9999860938
9.99998602766
9.99998556964
9.99998551326
9.99998488268
9.99999998546
9.99999978115
9.99999958415
9.999999399
9.99999921576
9.99999903399
9.99999885341
9.99999867464
9.99999849651
9.99999831994
9.99999814267
9.99999796671
9.9999977881
9.99999761098
9.99999742849
9.99999724856
9.99999705925
9.99999687532
9.99999667561
9.99999648734
9.99999627244
9.99999608138
9.99999584375
9.99999565577
9.99999538111
9.99999521291
9.99999486882
9.99999476676
9.99999426974
9.99999436586
9.99999348436
9.99999415978
9.99999223993
9.99999457193
9.99998982623
9.99999667226
9.99998463089
10.0000026512
9.99997392987
10.0000151852
9.99995643478
10.0000313655
9.99994376818
10.0000248363
9.99998232049
9.99992965975
10.0001433893
9.99970541971
10.0003785399
9.99955934326
10.0002577066
10.0002116297
9.99879776512
10.00210997
9.99933910793
9.99692752789
9.97569527381
9.91988328066
9.83828865459