/*--------------------------------*- C++ -*----------------------------------*\
  =========                 |
  \\      /  F ield         | OpenFOAM: The Open Source CFD Toolbox
   \\    /   O peration     | Website:  https://openfoam.org
    \\  /    A nd           | Version:  7
     \\/     M anipulation  |
\*---------------------------------------------------------------------------*/
FoamFile
{
    version     2.0;
    format      ascii;
    class       volScalarField;
    location    "300";
    object      p;
}
// * * * * * * * * * * * * * * * * * * * * * * * * * * * * * * * * * * * * * //

dimensions      [0 2 -2 0 0 0 0];

internalField   nonuniform List<scalar> 
8192
(
0.000708140015741
0.000536612763208
0.000451053841123
0.000407018575785
0.000382079167591
0.000366926064568
0.000357136192322
0.000350462415901
0.000345696826284
0.000342155289209
0.000339430832517
0.00033727016012
0.000335509087363
0.000334037327131
0.000332778478006
0.000331678194423
0.000330696928923
0.000329805323125
0.000328981186407
0.000328207456737
0.000327470786806
0.000326760538425
0.00032606804938
0.000325386085207
0.000324708418014
0.000324029492473
0.000323344151992
0.000322647406218
0.0003219342243
0.00032119934229
0.000320437076107
0.000319641133027
0.000318804416268
0.000317918818354
0.00031697500067
0.000315962158218
0.000314867771251
0.00031367734843
0.000312374170664
0.000310939049893
0.00030935012389
0.000307582715215
0.000305609290199
0.000303399559776
0.00030092076722
0.000298138204756
0.000295015989623
0.0002915181074
0.000287609696611
0.000283258505926
0.000278436412422
0.000273120858883
0.000267296067338
0.000260953928073
0.000254094545977
0.000246726521453
0.00023886710246
0.000230542335646
0.000221787284413
0.000212646317247
0.000203173390784
0.000193432097525
0.000183495055478
0.000173442215271
0.000163357991148
0.000153327591339
0.000143433192903
0.00013375061109
0.000124346998585
0.000115279809859
0.000106596838939
9.83368531594e-05
9.05303608613e-05
8.32002424213e-05
7.63621356825e-05
7.00245666504e-05
6.41889104647e-05
5.88493564177e-05
5.3993076308e-05
4.96007359732e-05
4.5647380848e-05
4.21036241207e-05
3.89370051903e-05
3.61133719773e-05
3.35981612429e-05
3.13574889962e-05
2.93590051316e-05
2.75725026068e-05
2.59702985343e-05
2.45274204203e-05
2.32216381577e-05
2.20333822522e-05
2.09455850776e-05
1.99434754302e-05
1.9014350259e-05
1.81473407649e-05
1.73331849591e-05
1.65640140883e-05
1.5833157343e-05
1.51349665783e-05
1.44646614247e-05
1.38181938375e-05
1.31921307634e-05
1.25835530225e-05
1.19899686311e-05
1.14092385657e-05
1.08395133008e-05
1.02791783799e-05
9.72680767237e-06
9.18112296385e-06
8.64095894519e-06
8.10523272623e-06
7.57291749292e-06
7.04302015645e-06
6.51456359937e-06
5.98657484379e-06
5.45808204826e-06
4.92812543141e-06
4.39579141119e-06
3.86028624925e-06
3.32107877591e-06
2.77816667122e-06
2.23257075583e-06
1.68726575539e-06
1.14899117453e-06
6.31968184474e-07
1.6704166424e-07
-9.1698699234e-08
0.000559203589662
0.000495712624648
0.000446072739336
0.000413485750949
0.000391633161928
0.000376518218869
0.000365758538334
0.000357887300648
0.000351978401372
0.000347433245475
0.00034385591788
0.000340978560095
0.00033861593518
0.000336637248898
0.000334948333238
0.000333480155088
0.000332181253304
0.00033101266014
0.000329944422936
0.000328953175472
0.000328020410052
0.000327131225074
0.000326273400106
0.000325436699366
0.000324612336242
0.000323792550938
0.000322970268783
0.000322138816455
0.00032129167706
0.000320422270484
0.000319523749157
0.000318588801367
0.000317609456258
0.000316576886156
0.000315481203704
0.000314311252997
0.000313054396362
0.000311696301097
0.000310220734222
0.000308609377507
0.000306841680359
0.000304894773628
0.000302743473187
0.000300360406461
0.000297716297155
0.000294780440591
0.000291521392707
0.000287907877701
0.000283909892447
0.000279499952016
0.000274654385923
0.000269354569086
0.000263587968341
0.000257348916948
0.00025063909646
0.000243467786262
0.000235851992396
0.000227816556391
0.000219394288231
0.000210626121445
0.000201561250082
0.00019225709215
0.000182778733283
0.000173197468937
0.000163588356544
0.000154027115834
0.000144586920246
0.000135335586393
0.0001263336032
0.000117633216021
0.000109278400681
0.000101305309798
9.37428150182e-05
8.66129542614e-05
7.99312139575e-05
7.37066323311e-05
6.7941781108e-05
6.26327637909e-05
5.77693937524e-05
5.33356634739e-05
4.93105237474e-05
4.56689089048e-05
4.23828977747e-05
3.94228915545e-05
3.67587076193e-05
3.43605188859e-05
3.21996014565e-05
3.02488818157e-05
2.84832961487e-05
2.68799871962e-05
2.5418370161e-05
2.40800996251e-05
2.28489668822e-05
2.17107523871e-05
2.06530531597e-05
1.96650999075e-05
1.87375745653e-05
1.78624352609e-05
1.70327531761e-05
1.62425635666e-05
1.54867319297e-05
1.47608351573e-05
1.4061057041e-05
1.33840969703e-05
1.27270906227e-05
1.20875412477e-05
1.14632603088e-05
1.08523162024e-05
1.02529900287e-05
9.66373742497e-06
9.08315578046e-06
8.50995627332e-06
7.94294057296e-06
7.38098233622e-06
6.82301427661e-06
6.26802227431e-06
5.71504928087e-06
5.1632134884e-06
4.611748165e-06
4.06007495986e-06
3.50792982072e-06
2.95557244196e-06
2.40413009186e-06
1.85616119409e-06
1.31658541219e-06
7.94283221146e-07
3.04223273434e-07
-3.13549261665e-08
0.000476197529409
0.000453562091602
0.000427619643408
0.000406441101043
0.000390381212868
0.000378126552894
0.000368655132548
0.00036123793977
0.000355352293377
0.000350618770006
0.000346759107112
0.000343567428894
0.000340890116998
0.000338611540939
0.000336643868204
0.000334919748191
0.000333387030085
0.000332004924038
0.000330741189627
0.00032957005833
0.000328470683174
0.000327425969072
0.000326421679744
0.000325445746546
0.000324487725905
0.000323538363776
0.000322589240305
0.000321632474347
0.000320660469297
0.00031966568778
0.000318640446037
0.000317576720484
0.000316465960894
0.000315298906063
0.000314065399567
0.000312754204706
0.000311352819899
0.000309847297985
0.000308222076027
0.000306459825612
0.000304541338092
0.000302445463713
0.000300149128639
0.000297627457767
0.000294854033674
0.000291801320446
0.000288441274288
0.000284746148198
0.000280689475157
0.000276247183919
0.000271398768083
0.000266128401117
0.000260425880658
0.00025428731002
0.000247715490143
0.000240720083626
0.000233317671632
0.000225531806251
0.000217393086006
0.000208939247883
0.00020021528837
0.000191273533791
0.000182173301013
0.000172979664398
0.000163761193648
0.000154587059632
0.000145524068983
0.00013663406711
0.000127972142792
0.000119585892488
0.000111515546395
0.000103794460804
9.6449600124e-05
8.95018944908e-05
8.2966454093e-05
7.68526194098e-05
7.11638862292e-05
6.58978438375e-05
6.10462967875e-05
5.65956786664e-05
5.25277651858e-05
4.88206133108e-05
4.54496159732e-05
4.2388561611e-05
3.96106096334e-05
3.70891229192e-05
3.47983286452e-05
3.27138031606e-05
3.08127942895e-05
2.90744042636e-05
2.74796608938e-05
2.6011504131e-05
2.46547127317e-05
2.33957914837e-05
2.2222835472e-05
2.11253835873e-05
2.00942702939e-05
1.91214815996e-05
1.82000192243e-05
1.7323775082e-05
1.64874172322e-05
1.56862874111e-05
1.49163099181e-05
1.41739110895e-05
1.34559486e-05
1.27596495613e-05
1.20825565631e-05
1.14224806771e-05
1.07774606945e-05
1.01457278262e-05
9.52567539548e-06
8.91583308007e-06
8.31484563344e-06
7.72145615442e-06
7.13449449218e-06
6.55287174242e-06
5.97558262036e-06
5.40171833502e-06
4.83049407912e-06
4.26129706024e-06
3.69376391713e-06
3.12790039055e-06
2.56426262258e-06
2.00422874305e-06
1.45039994099e-06
9.07088408595e-07
3.79976156715e-07
-1.46010359466e-08
0.00043156747994
0.000423225142942
0.00040908595265
0.000395348075285
0.000383971249807
0.000374742296151
0.000367207165237
0.000360996946516
0.000355833210222
0.000351503299473
0.000347841453033
0.000344716630505
0.000342024394618
0.000339681108441
0.00033761955255
0.000335785511195
0.00033413507725
0.000332632514934
0.00033124856288
0.000329959085885
0.000328744001954
0.00032758642577
0.000326471981523
0.00032538824773
0.000324324305594
0.000323270363115
0.000322217441222
0.000321157108348
0.000320081248088
0.000318981851606
0.000317850827804
0.000316679825283
0.000315460061495
0.000314182155663
0.000312835963279
0.000311410411278
0.000309893334614
0.00030827131683
0.000306529539728
0.000304651650248
0.000302619656461
0.000300413868927
0.000298012908516
0.000295393806338
0.000292532224835
0.000289402829517
0.000285979836255
0.000282237747083
0.000278152266299
0.000273701358286
0.000268866371677
0.00026363311924
0.000257992783573
0.000251942536911
0.000245485836468
0.000238632471413
0.000231398522401
0.000223806362699
0.00021588470546
0.000207668666928
0.000199199934878
0.000190527078953
0.000181705566921
0.000172796737891
0.000163865500984
0.000154977342165
0.000146195321654
0.000137577442981
0.000129174883083
0.000121031476388
0.000113184170569
0.000105663731288
9.84952573672e-05
9.16985044546e-05
8.52880683079e-05
7.92733788868e-05
7.36585205568e-05
6.8442048007e-05
6.36170136609e-05
5.91713306803e-05
5.50884638068e-05
5.13483509029e-05
4.79284282358e-05
4.48046438492e-05
4.19523733239e-05
3.93471864234e-05
3.69654437147e-05
3.47847255457e-05
3.27841108838e-05
3.094433113e-05
2.9247826128e-05
2.76787279261e-05
2.62227944249e-05
2.48673107693e-05
2.36009723305e-05
2.24137594089e-05
2.12968108896e-05
2.02423016357e-05
1.92433267106e-05
1.82937941229e-05
1.73883269434e-05
1.65221749207e-05
1.56911353819e-05
1.48914828656e-05
1.41199068633e-05
1.33734569091e-05
1.26494943187e-05
1.19456498433e-05
1.12597866297e-05
1.05899678949e-05
9.93442888501e-06
9.29155274645e-06
8.6598501328e-06
8.03794248387e-06
7.42454917149e-06
6.81847891297e-06
6.21862624117e-06
5.62397422106e-06
5.0336052891e-06
4.44672298789e-06
3.86268889541e-06
3.28108134817e-06
2.70178587564e-06
2.12512877495e-06
1.55204354694e-06
9.84095361877e-07
4.22402196046e-07
-1.16195775208e-08
0.000403867984945
0.000401959831435
0.000394219395582
0.000385079914239
0.000376845572826
0.000369853035336
0.000363944915404
0.000358915722408
0.000354597088215
0.000350859379633
0.000347601396516
0.000344741947546
0.000342214432976
0.000339963451907
0.000337942557782
0.000336112643329
0.00033444068722
0.000332898731514
0.000331463025267
0.000330113299429
0.000328832150902
0.000327604519053
0.000326417240633
0.000325258670538
0.000324118359296
0.000322986770167
0.000321855035282
0.000320714743981
0.000319557751027
0.000318376001568
0.000317161368328
0.000315905496942
0.000314599656191
0.000313234590501
0.00031180037296
0.000310286257943
0.000308680533678
0.000306970376528
0.000305141710875
0.000303179081091
0.00030106554561
0.000298782607436
0.000296310200567
0.000293626757279
0.000290709386176
0.00028753419356
0.000284076778715
0.000280312923982
0.000276219480312
0.000271775416798
0.000266962959935
0.000261768701904
0.000256184522809
0.000250208179787
0.000243843501142
0.000237100285021
0.000229994138487
0.000222546441839
0.000214784394188
0.000206741035082
0.000198455449364
0.000189973430328
0.000181348041897
0.000172638814117
0.000163909173796
0.000155223098754
0.000146641904549
0.000138221392552
0.000130009953405
0.000122048327545
0.000114370594237
0.000107005215373
9.99755920984e-05
9.33003577455e-05
8.69935631766e-05
8.10646231834e-05
7.55179918917e-05
7.03528037359e-05
6.55627826579e-05
6.11365708036e-05
5.70584422031e-05
5.33092636187e-05
4.98675469158e-05
4.67104651911e-05
4.38147468212e-05
4.11574021175e-05
3.87162702349e-05
3.64703969521e-05
3.44002672766e-05
3.24879220151e-05
3.07169872571e-05
2.90726422629e-05
2.75415466509e-05
2.61117429391e-05
2.47725463153e-05
2.35144299426e-05
2.23289114645e-05
2.12084442694e-05
2.01463156785e-05
1.91365531263e-05
1.81738387643e-05
1.7253432394e-05
1.63711024097e-05
1.5523064197e-05
1.47059254083e-05
1.39166374486e-05
1.31524525648e-05
1.24108859143e-05
1.16896820839e-05
1.09867855424e-05
1.03003146213e-05
9.62853864594e-06
8.9698579649e-06
8.32278667183e-06
7.68593796563e-06
7.05801219343e-06
6.43778785005e-06
5.824116055e-06
5.21591950743e-06
4.61219758914e-06
4.01204037433e-06
3.41465550372e-06
2.81941180867e-06
2.22589491089e-06
1.63392425314e-06
1.04330095773e-06
4.52579113716e-07
-1.0776258403e-08
0.000385446617487
0.000386417550967
0.000382442015411
0.000376362929156
0.000370313812443
0.000364917161852
0.000360223849655
0.000356139192502
0.000352556760085
0.000349388198918
0.000346564240009
0.000344030132215
0.000341741434976
0.000339661112467
0.000337757678331
0.000336004009162
0.0003343765462
0.000332854715312
0.000331420471556
0.000330057919497
0.000328752984561
0.000327493122795
0.00032626706209
0.000325064570468
0.000323876249336
0.000322693341121
0.00032150755663
0.000320310921058
0.000319095627457
0.00031785389881
0.000316577856031
0.000315259389454
0.000313890031654
0.000312460829759
0.000310962215822
0.000309383874388
0.000307714607191
0.000305942196053
0.000304053266742
0.000302033158889
0.000299865810367
0.000297533668965
0.000295017649797
0.000292297163566
0.000289350247572
0.000286153836815
0.000282684213518
0.000278917666455
0.000274831372044
0.000270404474547
0.000265619292074
0.00026046251346
0.00025492619435
0.000249008349103
0.000242713032136
0.000236050036788
0.000229034574728
0.000221687229957
0.000214034047969
0.00020610646131
0.000197941435668
0.000189582621218
0.000181081801247
0.000172498378691
0.00016389620957
0.000155339623308
0.000146889908016
0.000138602053336
0.000130522501082
0.00012268928351
0.000115133873439
0.000107882700409
0.000100957668427
9.43763794038e-05
8.8152372761e-05
8.22950440083e-05
7.68091181284e-05
7.16940442187e-05
6.69437609731e-05
6.25470173929e-05
5.84881628731e-05
5.47482051895e-05
5.13059401248e-05
4.81390090437e-05
4.5224798024e-05
4.25411407081e-05
4.00668229604e-05
3.77819104695e-05
3.5667931681e-05
3.37079509339e-05
3.18865636521e-05
3.01898398983e-05
2.86052364985e-05
2.71214924007e-05
2.57285174124e-05
2.44172809858e-05
2.31797052219e-05
2.20085644831e-05
2.08973928321e-05
1.98403997085e-05
1.88323937858e-05
1.78687146259e-05
1.69451716093e-05
1.60579895136e-05
1.52037601131e-05
1.43793991591e-05
1.35821081531e-05
1.28093403454e-05
1.20587704599e-05
1.13282676736e-05
1.06158714495e-05
9.91976985153e-06
9.23828004019e-06
8.56983068707e-06
7.91294613328e-06
7.26623219573e-06
6.6283636833e-06
5.99807388165e-06
5.37414659902e-06
4.7554117551e-06
4.14074582458e-06
3.5290778394e-06
2.91939738943e-06
2.31074436032e-06
1.70210660501e-06
1.09201208535e-06
4.77383113979e-07
-9.39250517011e-09
0.000372507563339
0.000374721078
0.000372998048879
0.000369038047443
0.000364595012786
0.000360387785882
0.000356606954383
0.000353247755856
0.000350253436211
0.000347564012496
0.000345128779692
0.000342907138046
0.000340866552451
0.000338980389239
0.000337226273439
0.000335584968263
0.000334039635467
0.000332575341771
0.000331178714856
0.000329837687633
0.000328541294411
0.000327279498321
0.000326043038655
0.000324823292767
0.000323612147567
0.000322401875368
0.000321185017234
0.000319954276693
0.000318702412853
0.000317422135972
0.000316106003894
0.000314746317844
0.000313335016151
0.000311863564462
0.000310322841233
0.000308703017487
0.000306993430379
0.00030518245087
0.000303257347195
0.000301204147822
0.000299007510767
0.00029665061064
0.000294115060997
0.000291380897562
0.000288426656975
0.000285229594404
0.000281766088314
0.000278012277132
0.000273944954706
0.000269542714123
0.000264787269842
0.000259664807438
0.000254167121416
0.000248292253082
0.000242044439142
0.00023543352345
0.000228474404893
0.00022118703396
0.000213596650784
0.000205733512296
0.000197632726902
0.000189336063589
0.000180894924266
0.000172370273546
0.000163828293362
0.000155335404289
0.000146954512066
0.000138741132044
0.000130740362285
0.000122987577139
0.000115511724668
0.00010833746539
0.000101485415548
9.49722197558e-05
8.8810959843e-05
8.30110889501e-05
7.7577606639e-05
7.25100969175e-05
6.78023191646e-05
6.34425627291e-05
5.94145827203e-05
5.56988199524e-05
5.22736572779e-05
4.9116551958e-05
4.62049595564e-05
4.35170218977e-05
4.10320308792e-05
3.87307026058e-05
3.65953049879e-05
3.46096808194e-05
3.27592019571e-05
3.10306820552e-05
2.94122675519e-05
2.78933201794e-05
2.64642994465e-05
2.51166500988e-05
2.38426972696e-05
2.26355505228e-05
2.14890170824e-05
2.03975239808e-05
1.93560485762e-05
1.83600567298e-05
1.74054478984e-05
1.64885063914e-05
1.56058580885e-05
1.47544319562e-05
1.39314257655e-05
1.31342754645e-05
1.23606277162e-05
1.16083151597e-05
1.08753339984e-05
1.01598235591e-05
9.46004750815e-06
8.77437644996e-06
8.10127169044e-06
7.43927000845e-06
6.78696937497e-06
6.14301566627e-06
5.50609051967e-06
4.87490042251e-06
4.24816649745e-06
3.62461204703e-06
3.00293765353e-06
2.38175394252e-06
1.75939502941e-06
1.13344824652e-06
4.99773167089e-07
-6.14326846809e-09
0.000363011744638
0.000365701595827
0.000365334549276
0.000362860320116
0.000359633587165
0.000356352282697
0.000353283717287
0.000350491457728
0.000347962053641
0.000345660549439
0.000343550984451
0.000341602349571
0.000339789249245
0.000338090992644
0.000336490462218
0.000334973166259
0.000333526540661
0.000332139460083
0.000330801899955
0.00032950469914
0.000328239386793
0.000326998048985
0.000325773219504
0.000324557787508
0.000323344909833
0.000322127927969
0.000320900288144
0.000319655467237
0.000318386895039
0.000317087875426
0.000315751505262
0.000314370589845
0.000312937553665
0.000311444345183
0.000309882334297
0.00030824220126
0.000306513815985
0.000304686107249
0.000302746922241
0.000300682878683
0.000298479214652
0.000296119645813
0.000293586246594
0.000290859381227
0.000287917722394
0.000284738407896
0.000281297395767
0.000277570079611
0.00027353221063
0.000269161133571
0.000264437274722
0.000259345717839
0.000253877571497
0.000248030718172
0.000241809605765
0.000235224228684
0.000228289209117
0.000221023936861
0.000213453204744
0.000205606581963
0.000197517357471
0.000189225189814
0.000180781826722
0.000172251780699
0.000163705664825
0.00015521370282
0.000146842168141
0.000138648618097
0.000130677204639
0.000122960238217
0.000115524036098
0.000108391824331
0.000101583155778
9.51137115147e-05
8.89961434245e-05
8.32401086551e-05
7.78509739671e-05
7.28283238491e-05
6.81653449896e-05
6.38492858518e-05
5.9862632205e-05
5.61845648863e-05
5.27923933172e-05
4.96627921544e-05
4.67727634538e-05
4.41003119967e-05
4.16248635076e-05
3.93274772996e-05
3.719090973e-05
3.51995790651e-05
3.33394716249e-05
3.15980178484e-05
2.99639572353e-05
2.842720382e-05
2.69787187201e-05
2.56103929779e-05
2.43149418644e-05
2.30858106287e-05
2.19170910467e-05
2.08034478193e-05
1.97400537774e-05
1.87225328523e-05
1.77469098392e-05
1.68095660635e-05
1.59072001602e-05
1.50367932596e-05
1.41955779656e-05
1.33810105752e-05
1.25907460626e-05
1.18226153948e-05
1.10746048006e-05
1.03448366456e-05
9.63155160871e-06
8.93309187972e-06
8.24788513579e-06
7.57442907804e-06
6.91127633082e-06
6.25701947044e-06
5.61027578863e-06
4.96967085401e-06
4.33381849164e-06
3.70129117255e-06
3.07056629768e-06
2.43991528777e-06
1.80716737521e-06
1.16923476304e-06
5.21297182159e-07
-2.72602369575e-10
0.000355796969731
0.000358605625525
0.000359053541082
0.00035762464602
0.000355329534524
0.000352787976952
0.000350295402635
0.000347960905693
0.000345806422667
0.000343819731903
0.000341978598187
0.000340260388935
0.000338645196711
0.000337116345117
0.000335659991572
0.000334264525093
0.000332920010565
0.000331617746765
0.000330349936551
0.000329109446911
0.000327889634526
0.000326684216465
0.000325487170616
0.000324292659051
0.000323094955914
0.000321888382989
0.000320667250561
0.00031942580118
0.000318158150202
0.000316858223913
0.000315519693972
0.00031413590688
0.000312699807136
0.000311203852599
0.000309639920478
0.000307999202213
0.00030627208554
0.000304448022226
0.000302515380569
0.000300461283151
0.000298271432921
0.000295929935236
0.000293419130789
0.000290719465299
0.000287809436673
0.00028466567796
0.000281263250973
0.000277576233622
0.000273578673205
0.000269245937806
0.000264556420442
0.000259493426442
0.000254046888672
0.000248214335272
0.000242000508342
0.000235415684138
0.000228474125467
0.000221194535839
0.000213601654959
0.000205725097442
0.000197596141675
0.000189251313901
0.000180743266652
0.000172142803695
0.000163527537426
0.000154973145155
0.000146551314514
0.000138323716575
0.000130333730504
0.000122609467471
0.000115174328506
0.000108050688378
0.000101257285941
9.48086370726e-05
8.87169010606e-05
8.29921575637e-05
7.76403168955e-05
7.26608280348e-05
6.80458400383e-05
6.37808902788e-05
5.98464494786e-05
5.62197057417e-05
5.28762260881e-05
4.97913220767e-05
4.69410569337e-05
4.43029029034e-05
4.18561021581e-05
3.95818043014e-05
3.74630530295e-05
3.54846823433e-05
3.36331666594e-05
3.18964542347e-05
3.0263801625e-05
2.87256187039e-05
2.727332853e-05
2.58992432322e-05
2.45964554069e-05
2.33587437031e-05
2.21804909789e-05
2.10566133829e-05
1.99824988241e-05
1.89539534581e-05
1.79671549913e-05
1.70186117738e-05
1.61051268004e-05
1.52237658683e-05
1.4371829247e-05
1.35468263106e-05
1.27464526507e-05
1.19685692537e-05
1.12111833697e-05
1.04724307427e-05
9.75055889347e-06
9.04391117458e-06
8.35091131181e-06
7.6700481362e-06
6.99986013443e-06
6.33891927245e-06
5.68581312662e-06
5.0391234376e-06
4.39739720133e-06
3.75910223408e-06
3.1225507681e-06
2.48575926815e-06
1.84618957687e-06
1.20029851529e-06
5.42859035042e-07
8.70628235726e-09
0.000350168391105
0.000352932032648
0.000353864726028
0.000353171114482
0.000351591227306
0.000349647534453
0.000347631538934
0.000345677654151
0.000343834040041
0.000342107938712
0.00034048990732
0.000338965356946
0.000337519470531
0.000336138963486
0.000334812458422
0.000333530319628
0.00033228432627
0.000331067340029
0.000329873021125
0.00032869560309
0.000327529720076
0.000326370275732
0.000325212342553
0.000324051087011
0.000322881702032
0.00032169934608
0.000320499094673
0.000319275891892
0.000318024500657
0.000316739450593
0.00031541498194
0.000314044983922
0.000312622925928
0.000311141779738
0.000309593930738
0.000307971075853
0.000306264105623
0.000304462967775
0.000302556509808
0.000300532299009
0.000298376420477
0.000296073258022
0.000293605270431
0.000290952788039
0.000288093872654
0.000285004307457
0.000281657808485
0.000278026567035
0.000274082228658
0.000269797375443
0.000265147494174
0.000260113271925
0.000254682818332
0.000248853033009
0.000242629075888
0.000236021668729
0.00022904439725
0.000221714722936
0.000214057761013
0.000206104526728
0.000197883892983
0.000189426776491
0.000180787054804
0.000172046191759
0.000163292173092
0.000154607435897
0.000146071681522
0.000137754054595
0.000129697020283
0.000121922035899
0.000114449180404
0.000107301169142
0.000100496174367
9.40469098001e-05
8.79647886435e-05
8.22606294023e-05
7.69411478587e-05
7.2005454136e-05
6.74440296608e-05
6.32398578542e-05
5.93705143239e-05
5.58103756017e-05
5.25325557345e-05
4.95104181681e-05
4.67186253734e-05
4.41337633127e-05
4.17346245441e-05
3.95022501307e-05
3.74198221567e-05
3.54724780979e-05
3.36470955116e-05
3.19320764364e-05
3.03171470535e-05
2.87931792993e-05
2.73520359125e-05
2.59864377137e-05
2.46898507173e-05
2.34563903429e-05
2.22807400778e-05
2.11580822265e-05
2.00840387124e-05
1.90546202258e-05
1.80661823029e-05
1.71153871652e-05
1.61991703549e-05
1.53147113648e-05
1.44594075962e-05
1.36308510826e-05
1.28268075026e-05
1.20451970684e-05
1.12840769296e-05
1.05416247626e-05
9.8161232409e-06
9.10594508132e-06
8.40953833883e-06
7.72541155339e-06
7.05211820157e-06
6.38823959852e-06
5.73236478876e-06
5.08306478267e-06
4.43885623228e-06
3.79814542683e-06
3.15913606073e-06
2.5196725801e-06
1.87697722735e-06
1.22723574044e-06
5.65023893554e-07
2.11036140565e-08
0.000345691735966
0.000348338663815
0.000349552316859
0.000349374664557
0.000348342985675
0.000346883962045
0.000345266930779
0.000343635987026
0.000342056602944
0.000340551439624
0.000339122359699
0.000337762399306
0.000336461720969
0.000335210307324
0.000333999009665
0.000332819820083
0.000331665809752
0.000330530947746
0.000329409897848
0.00032829783298
0.000327190279588
0.000326082992266
0.000324971854729
0.000323852803384
0.000322721761525
0.000321574576973
0.000320406977629
0.000319214525649
0.000317992572049
0.000316736209459
0.000315440221158
0.000314099024505
0.000312706606815
0.000311256451488
0.000309741451879
0.000308153809946
0.000306484916175
0.000304725206808
0.000302863994082
0.000300889265458
0.000298787449291
0.000296543148175
0.000294138848791
0.000291554630744
0.00028876791848
0.000285753350775
0.000282482878163
0.000278926229543
0.000275051896672
0.000270828749388
0.000266228306372
0.0002612275396
0.000255811809272
0.000249976930728
0.000243728631596
0.000237078306585
0.000230038127016
0.000222622835243
0.000214858264583
0.000206779565151
0.000198412764532
0.000189777818674
0.000180929683879
0.000171968264934
0.000162996605468
0.000154104029988
0.000145381805624
0.000136912740319
0.000128737674922
0.000120866377203
0.000113315298048
0.000106110012742
9.92682054597e-05
9.27992135396e-05
8.6713105704e-05
8.10219248267e-05
7.57335440418e-05
7.08463590693e-05
6.63482619227e-05
6.22185720373e-05
5.84308970274e-05
5.49558630076e-05
5.17633614358e-05
4.88242122991e-05
4.6111241042e-05
4.35998422577e-05
4.12681532959e-05
3.90969716977e-05
3.70695308348e-05
3.51712161876e-05
3.33892738587e-05
3.17125391571e-05
3.01311973427e-05
2.86365793331e-05
2.72209903984e-05
2.58775678151e-05
2.4600162957e-05
2.3383243527e-05
2.22218121964e-05
2.11113385281e-05
2.00477016486e-05
1.90271416247e-05
1.80462179182e-05
1.71017736113e-05
1.61909043586e-05
1.53109312181e-05
1.44593766738e-05
1.36339432776e-05
1.28324944373e-05
1.20530369428e-05
1.12937048729e-05
1.05527445604e-05
9.82850030056e-06
9.11940047752e-06
8.42394373039e-06
7.74068466828e-06
7.06821842576e-06
6.40516294736e-06
5.75013715654e-06
5.10173185421e-06
4.45846788722e-06
3.81873222885e-06
3.18067647424e-06
2.54205399548e-06
1.89996474844e-06
1.25048021236e-06
5.88150818988e-07
3.70902122489e-08
0.000342083868672
0.000344585934662
0.000345953143776
0.000346135690115
0.000345522800523
0.00034445618206
0.000343174547397
0.000341820799396
0.000340470080296
0.000339156270174
0.000337890604477
0.000336673013916
0.000335498438239
0.000334360093844
0.000333251031339
0.00033216478593
0.000331095572693
0.000330038270014
0.000328988316845
0.0003279415856
0.000326894258701
0.000325842719581
0.00032478346294
0.000323713019754
0.00032262789256
0.000321524495
0.000320399107122
0.000319247830923
0.000318066546788
0.000316850868601
0.000315596095482
0.000314297158034
0.000312948556891
0.00031154429098
0.000310077772499
0.000308541724933
0.000306928059591
0.000305227725229
0.000303430524402
0.000301524889648
0.000299497613117
0.000297333526102
0.000295015131946
0.000292522210126
0.000289831434184
0.000286916084299
0.000283745984603
0.000280287844514
0.000276506207348
0.000272365179267
0.000267831019513
0.000262875538788
0.000257479988289
0.000251638301407
0.000245356926127
0.000238648326791
0.000231521838833
0.000223986072765
0.000216067340099
0.000207810546909
0.00019923897295
0.000190350332206
0.000181199436215
0.000171919666699
0.000162635887311
0.000153441203304
0.000144443640679
0.000135752057949
0.000127403731416
0.000119386393252
0.000111713340382
0.000104418270582
9.75177075994e-05
9.1014075809e-05
8.49149524747e-05
7.92344313359e-05
7.39819834756e-05
6.91545704437e-05
6.4736113703e-05
6.07007973365e-05
5.70169574142e-05
5.36504031613e-05
5.05669840303e-05
4.77343908926e-05
4.51232271466e-05
4.27074665169e-05
4.04644711748e-05
3.83747460527e-05
3.64215691025e-05
3.45905905359e-05
3.28694535116e-05
3.12474602927e-05
2.97152905774e-05
2.82647696464e-05
2.6888680025e-05
2.5580609335e-05
2.43348273913e-05
2.31461865596e-05
2.20100404721e-05
2.09221772031e-05
1.98787638521e-05
1.88763001649e-05
1.79115793547e-05
1.69816546918e-05
1.60838107442e-05
1.5215538383e-05
1.4374512848e-05
1.35585742993e-05
1.27657103849e-05
1.1994040422e-05
1.12418008474e-05
1.05073316098e-05
9.78906319124e-06
9.08550390648e-06
8.39522706092e-06
7.71685739788e-06
7.04905600039e-06
6.39050234857e-06
5.73987143976e-06
5.09580254296e-06
4.45685397606e-06
3.82143489352e-06
3.18770025732e-06
2.55338961167e-06
1.91558700031e-06
1.27038489463e-06
6.12456056777e-07
5.67144298925e-08
0.000339152514385
0.000341501771675
0.00034294180221
0.000343373380226
0.000343078972647
0.000342329009519
0.000341329294544
0.000340214714383
0.000339064105676
0.000337918699083
0.000336796997469
0.000335704840271
0.000334641563248
0.000333603513939
0.000332585937411
0.000331583916093
0.000330592785809
0.000329608275142
0.000328626507464
0.000327643941515
0.000326657290205
0.000325663436926
0.000324659361564
0.000323642074099
0.000322608551222
0.000321555682018
0.000320480223386
0.000319378757076
0.00031824764764
0.000317082999291
0.000315880609605
0.000314635917888
0.000313343945765
0.000311999227144
0.000310595724054
0.000309126723981
0.000307584713155
0.000305961218767
0.000304246611467
0.000302429857927
0.000300498212456
0.00029843683794
0.000296228352073
0.000293852308824
0.000291284652466
0.000288497227544
0.000285457493917
0.000282128669721
0.000278470574145
0.000274441419781
0.000270000700801
0.000265113217374
0.000259754148934
0.000253914170833
0.000247600570665
0.00024082773887
0.000233599788128
0.000225911824937
0.000217788259326
0.000209295195087
0.000200455579005
0.000191220974455
0.000181642152312
0.000171916773338
0.000162201499077
0.000152582209242
0.000143191768863
0.000134191185348
0.000125609284189
0.000117390094602
0.000109546931156
0.000102132340545
9.51585604281e-05
8.86135847751e-05
8.25006455398e-05
7.68374544419e-05
7.16355951057e-05
6.68892638203e-05
6.25763783613e-05
5.8664099005e-05
5.51139743859e-05
5.18858473683e-05
4.89407112846e-05
4.62426112958e-05
4.37596533025e-05
4.14642886021e-05
3.93331138288e-05
3.73464132109e-05
3.54876101667e-05
3.37427291966e-05
3.20999177001e-05
3.05490444683e-05
2.90813737636e-05
2.76893058265e-05
2.63661722698e-05
2.51060751862e-05
2.39037603577e-05
2.27545167523e-05
2.1654096206e-05
2.05986485956e-05
1.95846689562e-05