/*--------------------------------*- C++ -*----------------------------------*\
  =========                 |
  \\      /  F ield         | OpenFOAM: The Open Source CFD Toolbox
   \\    /   O peration     | Website:  https://openfoam.org
    \\  /    A nd           | Version:  7
     \\/     M anipulation  |
\*---------------------------------------------------------------------------*/
FoamFile
{
    version     2.0;
    format      ascii;
    class       surfaceScalarField;
    location    "300";
    object      phi;
}
// * * * * * * * * * * * * * * * * * * * * * * * * * * * * * * * * * * * * * //

dimensions      [0 3 -1 0 0 0 0];

internalField   nonuniform List<scalar> 
16192
(
6.9287529698e-10
2.4462470302e-10
4.93467368541e-10
1.99407939735e-10
3.64717986903e-10
1.28749392642e-10
2.82164892317e-10
8.25531053257e-11
2.27607336873e-10
5.45575665497e-11
1.90094541443e-10
3.7512807058e-11
1.6327696059e-10
2.68175930683e-11
1.43436278528e-10
1.984069488e-11
1.28334001417e-10
1.51022905097e-11
1.16574804657e-10
1.17592106988e-11
1.07256484174e-10
9.31833492491e-12
9.97746387612e-11
7.48186032525e-12
9.37109790636e-11
6.06367506746e-12
8.87675564797e-11
4.94343840433e-12
8.47268066848e-11
4.04076608042e-12
8.14265087878e-11
3.30031466244e-12
7.8743617065e-11
2.68290900295e-12
7.65835269349e-11
2.1601079546e-12
7.48727651675e-11
1.71078018467e-12
7.35538965595e-11
1.31888765644e-12
7.25819020409e-11
9.72014255732e-13
7.19215565404e-11
6.60365970115e-13
7.15455010544e-11
3.76076751699e-13
7.14328061251e-11
1.12717037648e-13
7.15678895355e-11
-1.35060391749e-13
7.19396918688e-11
-3.71778356758e-13
7.25410425345e-11
-6.01325660532e-13
7.33681693292e-11
-8.27100713487e-13
7.44203144694e-11
-1.05211790954e-12
7.56994277564e-11
-1.27908486025e-12
7.72099135038e-11
-1.51045604831e-12
7.89584105379e-11
-1.74846601653e-12
8.09535863268e-11
-1.99514337379e-12
8.32059258675e-11
-2.2523056825e-12
8.57274954181e-11
-2.52153416912e-12
8.85316589327e-11
-2.80412656901e-12
9.16327234252e-11
-3.10102590953e-12
9.50454869427e-11
-3.41272327329e-12
9.8784662204e-11
-3.73913330818e-12
1.02864149148e-10
-4.07944329969e-12
1.07296134259e-10
-4.4319397866e-12
1.12090003015e-10
-4.79382184814e-12
1.1725106818e-10
-5.16101678025e-12
1.22779139955e-10
-5.5280221227e-12
1.28666996727e-10
-5.88780608338e-12
1.34898852905e-10
-6.23180477678e-12
1.4144896011e-10
-6.55005542906e-12
1.48280508381e-10
-6.83149650539e-12
1.55345004176e-10
-7.06444440547e-12
1.62582276123e-10
-7.23722128298e-12
1.69921188641e-10
-7.3388628706e-12
1.77281028455e-10
-7.35979141672e-12
1.84573393694e-10
-7.29231828591e-12
1.91704309096e-10
-7.13087004049e-12
1.98576275342e-10
-6.8719226741e-12
2.05090068579e-10
-6.51375165393e-12
2.11146293313e-10
-6.05618549476e-12
2.16646856847e-10
-5.50052700957e-12
2.21496613096e-10
-4.849723021e-12
2.25605478127e-10
-4.10883566363e-12
2.28891379373e-10
-3.28587649792e-12
2.31284278295e-10
-2.39287943701e-12
2.3273096245e-10
-1.44667067571e-12
2.33199582328e-10
-4.68612883663e-13
2.3268263824e-10
5.16944129852e-13
2.3119755529e-10
1.48507591458e-12
2.2878470417e-10
2.41283694146e-12
2.25503326649e-10
3.28135649079e-12
2.21426377542e-10
4.07692158575e-12
2.16635553677e-10
4.79079056231e-12
2.11217449581e-10
5.41806579044e-12
2.05261078005e-10
5.9563293172e-12
1.98856461598e-10
6.40457122606e-12
1.92093858593e-10
6.76255601619e-12
1.8506321331e-10
7.03059744487e-12
1.77853459052e-10
7.20970643897e-12
1.70551391058e-10
7.302020833e-12
1.63240032399e-10
7.3113126139e-12
1.55996658789e-10
7.24332894051e-12
1.48890806906e-10
7.10580869929e-12
1.41982606626e-10
6.90815860856e-12
1.35321681705e-10
6.66088471249e-12
1.28946723015e-10
6.37491990766e-12
1.22885708954e-10
6.06097662886e-12
1.1715665881e-10
5.72901403565e-12
1.11768760563e-10
5.38786339715e-12
1.06723709416e-10
5.04501755028e-12
1.02017112527e-10
4.70656449043e-12
9.76398491333e-11
4.37723220023e-12
9.35793106999e-11
4.06050839621e-12
8.98204793999e-11
3.75880243187e-12
8.63468285877e-11
3.47362307464e-12
8.31410483443e-11
3.20575365676e-12
8.01856100479e-11
2.95541283282e-12
7.74631908129e-11
2.72239492085e-12
7.49569800051e-11
2.50618762285e-12
7.26508902729e-11
2.30606770296e-12
7.05296928438e-11
2.12117653557e-12
6.85790948032e-11
1.95057830178e-12
6.67857725446e-11
1.79330364695e-12
6.51373734361e-11
1.64838162965e-12
6.36224946816e-11
1.51486236901e-12
6.22306468027e-11
1.39183257658e-12
6.09522068486e-11
1.27842568371e-12
5.97783655157e-11
1.17382807092e-12
5.87010706817e-11
1.07728252018e-12
5.77129693864e-11
9.88089897669e-13
5.68073490345e-11
9.05609806372e-13
5.59780783702e-11
8.29260935362e-13
5.52195477141e-11
7.58521680581e-13
5.45266077533e-11
6.92931704169e-13
5.38945050785e-11
6.3209507779e-13
5.3318812219e-11
5.75685891065e-13
5.27953484367e-11
5.23457388094e-13
5.23200863789e-11
4.75256210174e-13
5.18890370817e-11
4.31043945597e-13
5.14981027975e-11
3.90929402141e-13
5.11428815099e-11
3.55216825479e-13
5.08183989043e-11
3.244785353e-13
5.05187293418e-11
2.99665832919e-13
5.02364444181e-11
2.82281506115e-13
4.99617882636e-11
2.74653003828e-13
4.96814158621e-11
2.80369507442e-13
4.93764435006e-11
3.04969720014e-13
4.9019514825e-11
3.56926347964e-13
4.85710715274e-11
4.48441376141e-13
4.79781826615e-11
5.92887483643e-13
7.60837993295e-13
9.53360163415e-10
2.28764551521e-10
8.5956783663e-10
2.93200288258e-10
7.45061403048e-10
2.43255847331e-10
6.41999598724e-10
1.85614930703e-10
5.57007631792e-10
1.39549555327e-10
4.88874883531e-10
1.05645578144e-10
4.34569556717e-10
8.11229437223e-11
3.91129948511e-10
6.32803279046e-11
3.56135242958e-10
5.00970217921e-11
3.27723532027e-10
4.01709481991e-11
3.04491875169e-10
3.25500191398e-11
2.85386329528e-10
2.6587434075e-11
2.69611017252e-10
2.18390161981e-11
2.56559613372e-10
1.79948718946e-11
2.4576555437e-10
1.48348554795e-11
2.36866284849e-10
1.21996154094e-11
2.29577591306e-10
9.97163465865e-12
2.2367506935e-10
8.0626629689e-12
2.18980621569e-10
6.40526204126e-12
2.15352517955e-10
4.94702643264e-12
2.1267799968e-10
3.64656885851e-12
2.10867716786e-10
2.47068642982e-12
2.09851502797e-10
1.39232962506e-12
2.09575134384e-10
3.89125725961e-13
2.0999782415e-10
-5.5770841345e-13
2.11090261396e-10
-1.46417232172e-12
2.12833066347e-10
-2.3440857196e-12
2.15215557546e-10
-3.20954534719e-12
2.18234751367e-10
-4.07126342325e-12
2.21894528362e-10
-4.93881175084e-12
2.26204911588e-10
-5.82078730483e-12
2.3118140764e-10
-6.72490818483e-12
2.36844364085e-10
-7.65804395583e-12
2.43218296866e-10
-8.62618057463e-12
2.50331140109e-10
-9.63431743961e-12
2.58213367874e-10
-1.06862922423e-11
2.66896935114e-10
-1.17845289004e-11
2.76413983215e-10
-1.29297049676e-11
2.86795257105e-10
-1.41203386486e-11
2.98068186715e-10
-1.53523022956e-11
3.10254599778e-10
-1.66182802909e-11
3.23368056871e-10
-1.79072046432e-11
3.37410837517e-10
-1.92037216619e-11
3.52370657945e-10
-2.04877656836e-11
3.68217267004e-10
-2.17343375967e-11
3.84899139941e-10
-2.29135999753e-11
4.02340560132e-10
-2.39913981861e-11
4.20439427515e-10
-2.49302872401e-11
4.39066137693e-10
-2.56910791484e-11
4.58063813885e-10
-2.62348235918e-11
4.77250031507e-10
-2.65250084178e-11
4.96419960064e-10
-2.65296498868e-11
5.15350603229e-10
-2.62228935258e-11
5.3380563189e-10
-2.55858331449e-11
5.51540279437e-10
-2.46065073794e-11
5.68305959306e-10
-2.32793718811e-11
5.83854597686e-10
-2.16047681477e-11
5.97942967994e-10
-1.95888463672e-11
6.10337443216e-10
-1.72441531286e-11
6.20819635615e-10
-1.45909898987e-11
6.29193449829e-10
-1.16596606747e-11
6.35293838913e-10
-8.49324765625e-12
6.38996610504e-10
-5.14943147875e-12
6.4022738515e-10
-1.69938740134e-12
6.3896737997e-10
1.77693847327e-12
6.35254492551e-10
5.19794162664e-12
6.29179438001e-10
8.48785930178e-12
6.20877773471e-10
1.15829791265e-11
6.10519629638e-10
1.44350148683e-11
5.98299464095e-10
1.70108982888e-11
5.8442760474e-10
1.92898616409e-11
5.69124119492e-10
2.12597471236e-11
5.52614606842e-10
2.29140142034e-11
5.35127216661e-10
2.42498758855e-11
5.16890210244e-10
2.52675342163e-11
4.98129393812e-10
2.5970454894e-11
4.79064912624e-10
2.63664363314e-11
4.5990726319e-10
2.64688989516e-11
4.40852819377e-10
2.62977122695e-11
4.22079455282e-10
2.58791147821e-11
4.03742885126e-10
2.52446729863e-11
3.85974179591e-10
2.44295364594e-11
3.68878670241e-10
2.34703772348e-11
3.52536215542e-10
2.2403380887e-11
3.37002626942e-10
2.1262553644e-11
3.22311956672e-10
2.00784860216e-11
3.08479323122e-10
1.88776047424e-11
2.95503974677e-10
1.76818678172e-11
2.83372348659e-10
1.65088143282e-11
2.72060948348e-10
1.53718660341e-11
2.61538926242e-10
1.42807831081e-11
2.51770316178e-10
1.32421929696e-11
2.42715899378e-10
1.22601316006e-11
2.34334717905e-10
1.13365568044e-11
2.26585267231e-10
1.04718095144e-11
2.19426408131e-10
9.66501211027e-12
2.12818041331e-10
8.91440142222e-12
2.06721586592e-10
8.21759976237e-12
2.01100304693e-10
7.5718303e-12
1.95919495536e-10
6.97408452357e-12
1.91146600863e-10
6.42124965848e-12
1.86751234657e-10
5.9102035433e-12
1.82705160191e-10
5.43788360707e-12
1.78982228223e-10
5.00133576195e-12
1.75558287844e-10
4.59774806295e-12
1.7241107816e-10
4.22447325045e-12
1.69520106934e-10
3.87904354594e-12
1.66866519861e-10
3.55918059803e-12
1.64432962723e-10
3.2628030258e-12
1.62203436681e-10
2.98803382865e-12
1.6016314579e-10
2.73320979312e-12
1.58298333913e-10
2.49689516954e-12
1.56596106865e-10
2.27790211406e-12
1.5504423337e-10
2.07532094897e-12
1.53630916453e-10
1.88856403106e-12
1.52344523853e-10
1.71742822135e-12
1.51173263135e-10
1.56218251391e-12
1.50104783421e-10
1.4236895872e-12
1.49125682963e-10
1.30357264099e-12
1.48220901498e-10
1.20444148799e-12
1.47372985672e-10
1.13019202797e-12
1.46561250183e-10
1.08638367436e-12
1.45760958806e-10
1.08065657885e-12
1.44942921735e-10
1.12300306259e-12
1.44074627304e-10
1.22521774773e-12
1.43125800756e-10
1.39726573322e-12
1.42086983961e-10
1.63170300665e-12
1.84709755331e-12
9.76214205366e-10
1.90050357149e-10
9.63010975922e-10
3.0640353782e-10
9.06229691361e-10
3.00037151345e-10
8.34042266085e-10
2.57802375616e-10
7.6144161638e-10
2.12150225447e-10
6.94832910444e-10
1.72254305351e-10
6.36279539972e-10
1.396763363e-10
5.8587904214e-10
1.13680848617e-10
5.42942693796e-10
9.30333937195e-11
5.06544973139e-10
7.65686930709e-11
4.75762117243e-10
6.33328998371e-11
4.49763753685e-10
5.25858229882e-11
4.27838138931e-10
4.37646568607e-11
4.09389394847e-10
3.64436424465e-11
3.93924494608e-10
3.02997827759e-11
3.81037858227e-10
2.50862794672e-11
3.70396778777e-10
2.06127424534e-11
3.6172878601e-10
1.6730684788e-11
3.54811135552e-10
1.33229423191e-11
3.49462247996e-10
1.02959446143e-11
3.45534808438e-10
7.57403991195e-12
3.42910228772e-10
5.09529849635e-12
3.41494207387e-10
2.80838437506e-12
3.41213163072e-10
6.70204400025e-13
3.42011361314e-10
-1.35587125161e-12
3.43848582314e-10
-3.3013568548e-12
3.46698215927e-10
-5.1936817608e-12
3.50545686242e-10
-7.05697698182e-12
3.55387122168e-10
-8.9126595277e-12
3.61228202846e-10
-1.07798514773e-11
3.68083114246e-10
-1.26756566019e-11
3.75973556659e-10
-1.46153073644e-11
3.8492774446e-10
-1.6612187377e-11
3.94979338162e-10
-1.86777287829e-11
4.0616624707e-10
-2.08211797283e-11
4.18529237512e-10
-2.3049234982e-11
4.32110280059e-10
-2.53655226645e-11
4.46950568493e-10
-2.77699436062e-11
4.63088148067e-10
-3.02578674539e-11
4.8055510091e-10
-3.28192035177e-11
4.99374257919e-10
-3.54373849442e-11
5.19555439886e-10
-3.80883337348e-11
5.41091281217e-10
-4.073950983e-11
5.63952756278e-10
-4.33491876227e-11
5.88084611412e-10
-4.58661399902e-11
6.13400995857e-10
-4.82299324574e-11
6.39781670145e-10
-5.03720216553e-11
6.67069228009e-10
-5.22177957623e-11
6.95067771804e-10
-5.36895753204e-11
7.23543403624e-10
-5.47104096297e-11
7.52226717798e-10
-5.52082786681e-11
7.80817211964e-10
-5.51201018738e-11
8.08989222552e-10
-5.43948635704e-11
8.36398740994e-10
-5.29953125284e-11
8.62690416198e-10
-5.08981450545e-11
8.87504288503e-10
-4.80932083006e-11
9.10482241751e-10
-4.45826875986e-11
9.31274533821e-10
-4.03811072528e-11
9.49546862576e-10
-3.55164541777e-11
9.64988418298e-10
-3.00325222436e-11
9.7732151858e-10
-2.39927429925e-11
9.86313308749e-10
-1.74850261443e-11
9.91788814179e-10
-1.06249323872e-11
9.93642820092e-10
-3.55339636411e-12
9.91847456166e-10
3.57229154724e-12
9.86453595096e-10
1.05917843572e-11
9.77585850626e-10
1.7355578434e-11
9.65432191236e-10
2.37366071106e-11
9.50230426155e-10
2.96367434749e-11
9.32254622451e-10
3.49866617435e-11
9.11803790439e-10
3.97406508929e-11
8.89193419475e-10
4.38700741943e-11
8.64749252719e-10
4.73581371172e-11
8.38802499203e-10
5.01965866614e-11
8.11685746301e-10
5.23842462114e-11
7.83728790624e-10
5.39273719679e-11
7.55253732272e-10
5.48414585432e-11
7.26569151743e-10
5.51534457061e-11
6.97963768868e-10
5.49030634667e-11
6.69700344726e-10
5.41425089493e-11
6.42010614791e-10
5.29343742798e-11
6.15091822139e-10
5.13483014222e-11
5.89105104707e-10
4.94570676663e-11
5.64175694764e-10
4.73327642689e-11
5.40394673381e-10
4.50435487755e-11
5.17821901352e-10
4.26512319692e-11
4.96489713286e-10
4.02097668618e-11
4.76406988562e-10
3.77645666628e-11
4.57563279101e-10
3.53524980038e-11
4.39932754225e-10
3.30023652044e-11
4.23477803997e-10
3.07357077832e-11
4.08152211417e-10
2.85677601806e-11
3.93903859463e-10
2.65084584802e-11
3.80676977516e-10
2.45634140372e-11
3.68413958082e-10
2.2734804726e-11
3.57056788479e-10
2.10221580648e-11
3.46548149206e-10
1.9423017749e-11
3.36832230711e-10
1.79334960853e-11
3.27855318053e-10
1.65487216694e-11
3.19566187451e-10
1.52631947658e-11
3.11916353596e-10
1.40710641552e-11
3.04860200044e-10
1.29663387513e-11
2.98355019935e-10
1.19430464204e-11
2.92360988567e-10
1.09953508655e-11
2.86841085286e-10
1.01176361145e-11
2.81760977713e-10
9.30456658483e-12
2.77088878381e-10
8.55112961523e-12
2.72795380452e-10
7.85266618336e-12
2.68853277138e-10
7.204894889e-12
2.65237366751e-10
6.60393359773e-12
2.61924243761e-10
6.0463229692e-12
2.58892073966e-10
5.52905589531e-12
2.56120350567e-10
5.04961716068e-12
2.53589625931e-10
4.60603789523e-12
2.51281212838e-10
4.19697006752e-12
2.49176847788e-10
3.82178679323e-12
2.47258309546e-10
3.48071482742e-12
2.45506988449e-10
3.17500524599e-12
2.43903409973e-10
2.90714613543e-12
2.42426733205e-10
2.68111367527e-12
2.41054282158e-10
2.50263887285e-12
2.39761242083e-10
2.37941990952e-12
2.3852079881e-10
2.32109642431e-12
2.37305274126e-10
2.33852481919e-12
2.36089285035e-10
2.44120455837e-12
2.34856684977e-10
2.62986426794e-12
2.33611804748e-10
2.87658242421e-12
3.07701619337e-12
9.71790711455e-10
1.55759655645e-10
9.86801135282e-10
2.91393132283e-10
9.68480473218e-10
3.18357831107e-10
9.28449330688e-10
2.97833535848e-10
8.7855995697e-10
2.62039617473e-10
8.26329833335e-10
2.24484447955e-10
7.75903596246e-10
1.90102592966e-10
7.29309529012e-10
1.60274935951e-10
6.87357523261e-10
1.34985420004e-10
6.50196095644e-10
1.1373014158e-10
6.17638244971e-10
9.58907717078e-11
5.89345160833e-10
8.08789285948e-11
5.64926372008e-10
6.81834674117e-11
5.43992077869e-10
5.73779585677e-11
5.26178692832e-10
4.81131900586e-11
5.11159717521e-10
4.01052772997e-11
4.98648810314e-10
3.31236724731e-11
4.8839890705e-10
2.698061117e-11
4.80199509349e-10
2.15223634569e-11
4.73873284531e-10
1.6622193195e-11
4.69272571872e-10
1.21747766654e-11
4.66276085444e-10
8.09180934536e-12
4.64785937292e-10
4.29855726456e-12
4.64725015188e-10
7.3115153857e-13
4.66034703094e-10
-2.66553385694e-12
4.68672904405e-10
-5.9395326401e-12
4.72612332771e-10
-9.13308442573e-12
4.77839016813e-10
-1.22836352158e-11
4.84350966292e-10
-1.54245831636e-11
4.92156948367e-10
-1.85858077635e-11
5.01275321261e-10
-2.17940038532e-11
5.11732870567e-10
-2.50728312773e-11
5.23563590835e-10
-2.84428826028e-11
5.3680735136e-10
-3.19214647238e-11
5.51508381327e-10
-3.55221856646e-11
5.67713505612e-10
-3.92543358858e-11
5.85470060448e-10
-4.31220548475e-11
6.04823418518e-10
-4.71232798287e-11
6.25814058843e-10
-5.12484867984e-11
6.48474129848e-10
-5.54792544756e-11
6.72823478399e-10
-5.97867144455e-11
6.98865155941e-10
-6.41299933026e-11
7.26580469104e-10
-6.84548061888e-11
7.55923717059e-10
-7.26924200565e-11
7.8681685047e-10
-7.67592592933e-11
8.19144389571e-10
-8.05574589851e-11
8.52749037399e-10
-8.3976658545e-11
8.87428495191e-10
-8.68972442792e-11
9.22933999693e-10
-8.91950721449e-11
9.58971023946e-10
-9.07474275908e-11
9.95202388247e-10
-9.14396377209e-11
1.03125371515e-09
-9.11714240882e-11
1.06672077621e-09
-8.98619199633e-11
1.10117793915e-09
-8.74524702653e-11
1.13418682092e-09
-8.39070206779e-11
1.16530454549e-09
-7.92109255161e-11
1.19409160744e-09
-7.33697409718e-11
1.22011983003e-09
-6.6409320291e-11
1.24298090577e-09
-5.83775198725e-11
1.26229585489e-09
-4.93474615233e-11
1.27772611097e-09
-3.94229902677e-11
1.28898725597e-09
-2.87461642974e-11
1.29586492862e-09
-1.75026009026e-11
1.29822956599e-09
-5.91803282711e-12
1.29604571878e-09
5.75613631164e-12
1.28937371368e-09
1.72637839133e-11
1.27836364691e-09
2.83656371825e-11
1.26324282218e-09
3.8857422152e-11
1.24429926844e-09
4.85802867625e-11
1.22186537429e-09
5.74205456146e-11
1.1963046726e-09
6.53013433585e-11
1.16800212337e-09
7.21726160847e-11
1.1373567701e-09
7.8003485536e-11
1.10477584205e-09
8.27775127565e-11
1.07066963403e-09
8.64904552574e-11
1.03544628763e-09
8.91507222608e-11
9.99505629346e-10
9.0782123167e-11
9.63231838898e-10
9.14272443969e-11
9.26985496957e-10
9.11494148454e-11
8.91095999866e-10
9.0032015979e-11
8.5585530764e-10
8.81750762951e-11
8.21513679987e-10
8.56899382003e-11
7.88277660346e-10
8.26930953655e-11
7.56310223716e-10
7.93002076202e-11
7.25732764511e-10
7.56210131808e-11
6.96628473577e-10
7.17555264825e-11
6.69046622095e-10
6.7791620256e-11
6.43007307237e-10
6.3803881766e-11
6.18506291637e-10
5.98535122208e-11
5.95519661034e-10
5.59889928651e-11
5.7400811494e-10
5.22472494805e-11
5.5392078297e-10
4.86550864243e-11
5.35198521065e-10
4.52307134858e-11
5.17776686055e-10
4.198524114e-11
5.01587416779e-10
3.89240652738e-11
4.86561467191e-10
3.60480982826e-11
4.7262964562e-10
3.33548294982e-11
4.59723916208e-10
3.08392153914e-11
4.47778216893e-10
2.84944107606e-11
4.36729043589e-10
2.63123578622e-11
4.26515844862e-10
2.42842528163e-11
4.17081265032e-10
2.24009087504e-11
4.083712679e-10
2.06530340374e-11
4.00335167451e-10
1.90314421681e-11
3.92925587029e-10
1.75272078e-11
3.86098363811e-10
1.61317814971e-11
3.7981241168e-10
1.48370738869e-11
3.74029552072e-10
1.3635518377e-11
3.68714319647e-10
1.25201203438e-11
3.63833746983e-10
1.14844997249e-11
3.59357130537e-10
1.05229333036e-11
3.55255778187e-10
9.63040254337e-12
3.51502737395e-10
8.80265265124e-12
3.48072501935e-10
8.03626843737e-12
3.44940695035e-10
7.32877242431e-12
3.42083727499e-10
6.67875013924e-12
3.39478432382e-10
6.08600609391e-12
3.37101683698e-10
5.55175039521e-12
3.34930018504e-10
5.07880808665e-12
3.32939302498e-10
4.67182670315e-12
3.31104515365e-10
4.33742327122e-12
3.29399791261e-10
4.08414151258e-12
3.27798941586e-10
3.92194385149e-12
3.26276809774e-10
3.86065469123e-12
3.24811904731e-10
3.90610806804e-12
3.23390407996e-10
4.05135996822e-12
3.22009044827e-10
4.25794502566e-12
4.42296552423e-12
9.6402057588e-10
1.29239088976e-10
9.87985375444e-10
2.67428349747e-10
9.9041155005e-10
3.15931672936e-10
9.73376885292e-10
3.14868217149e-10
9.43816975316e-10
2.91599544562e-10
9.07766655487e-10
2.60534785453e-10
8.69409799494e-10
2.28459467095e-10
8.31384288251e-10
1.98300465686e-10
7.95239161033e-10
1.7113056597e-10
7.61808519383e-10
1.47160802149e-10
7.31476229902e-10
1.2622308022e-10
7.04352705817e-10
1.08002471785e-10
6.80389345846e-10
9.21468465417e-11
6.59451056483e-10
7.83162671301e-11
6.41361358868e-10
6.6202906912e-11
6.25929867879e-10
5.55367875611e-11
6.12968578394e-10
4.60849812628e-11
6.02301124214e-10
3.76480846775e-11
5.93767678678e-10
3.0055828333e-11
5.87227193843e-10
2.31626973603e-11
5.8255804949e-10
1.68439403148e-11
5.79657782691e-10
1.09920953647e-11
5.78442313342e-10
5.51404571181e-12
5.78844918149e-10
3.2856564262e-13
5.80815100073e-10
-4.63569712754e-12
5.84317431759e-10
-9.4418460265e-12
5.89330427756e-10
-1.41460625781e-11
5.95845445212e-10
-1.87986354068e-11
6.03865607191e-10
-2.34447285908e-11
6.13404728368e-10
-2.81249132574e-11
6.24486212303e-10
-3.28754731291e-11
6.37141880718e-10
-3.77284862338e-11
6.51410687725e-10
-4.27116775203e-11
6.6733726477e-10
-4.78480312227e-11
6.84970235818e-10
-5.31551478671e-11
7.04360236833e-10
-5.86443299086e-11
7.25557570284e-10
-6.43193832777e-11
7.48609425099e-10
-7.01751317023e-11
7.7355659775e-10
-7.61956586535e-11
8.00429662961e-10
-8.23523210882e-11
8.29244566941e-10
-8.86016220458e-11
8.59997655135e-10
-9.48830873516e-11
8.92660204572e-10
-1.01117363715e-10
9.27172610033e-10
-1.07204835843e-10
9.63438473478e-10
-1.13025135297e-10
1.0013189613e-09
-1.1843796158e-10
1.0406279099e-09
-1.23285624079e-10
1.0811282522e-09
-1.27397605544e-10
1.1225303707e-09
-1.3059721139e-10
1.16449291589e-09
-1.32709994895e-10
1.20662642407e-09
-1.33573168819e-10
1.24849970844e-09
-1.33044731419e-10
1.28964851317e-09
-1.31010746839e-10
1.32958544577e-09
-1.27389423277e-10
1.3678100024e-09
-1.22131595165e-10
1.40381786352e-09
-1.15218801261e-10
1.43710951237e-09
-1.06661400809e-10
1.46719893609e-09
-9.64987511813e-11
1.49362297468e-09
-8.48015620261e-11
1.51595137465e-09
-7.16758619115e-11
1.53379836793e-09
-5.72699816245e-11
1.54683788901e-09
-4.17856820474e-11
1.55482265945e-09
-2.54873675518e-11
1.55760248181e-09
-8.6978515549e-12
1.55513555933e-09
8.22306206781e-12
1.54749033594e-09
2.49090105649e-11
1.53483838481e-09
4.10175922865e-11
1.5174393926e-09
5.62564200265e-11
1.49562118294e-09
7.03985047097e-11
1.46976041401e-09
8.3281326311e-11
1.44026808786e-09
9.47936853891e-11
1.40757954722e-09
1.04861177112e-10
1.37214681737e-09
1.13436240389e-10
1.33443225459e-09
1.20492104912e-10
1.29490306482e-09
1.26019678233e-10
1.2540256639e-09
1.30028159469e-10
1.21225869222e-09
1.32549133277e-10
1.17004437726e-09
1.33641598922e-10
1.12779903714e-09
1.33394794641e-10
1.08590404838e-09
1.31927043588e-10
1.04469847827e-09
1.29380683696e-10
1.00447412285e-09
1.25914328765e-10
9.65473190642e-10
1.21694060205e-10
9.2788847389e-10
1.1688495424e-10
8.91865594093e-10
1.11643919964e-10
8.57506786388e-10
1.06114358232e-10
8.24875671891e-10
1.0042275587e-10
7.9400252283e-10
9.46770490551e-11
7.64889619817e-10
8.89664306618e-11
7.37516406251e-10
8.33622191656e-11
7.11844244432e-10
7.79194214938e-11
6.8782066128e-10
7.26786773945e-11
6.65383036146e-10
6.766834427e-11
6.44461728952e-10
6.29065520287e-11
6.24982677438e-10
5.84031187668e-11
6.06869510019e-10
5.41612661981e-11
5.90045229797e-10
5.01791089775e-11
5.7443352758e-10
4.64509158474e-11
5.59959780301e-10
4.29681554795e-11
5.4655178689e-10
3.97203480974e-11
5.34140288401e-10
3.66957476872e-11
5.22659313004e-10
3.38818802259e-11
5.12046380672e-10
3.1265962266e-11
5.02242596579e-10
2.8835222067e-11
4.9319265718e-10
2.65771429919e-11
4.8484478822e-10
2.44796462917e-11
4.77150629979e-10
2.25312280488e-11
4.70065081473e-10
2.07210629172e-11
4.63546112432e-10
1.9039085559e-11
4.57554549253e-10
1.74760592291e-11
4.52053839175e-10
1.60236398741e-11
4.47009795148e-10
1.46744432351e-11
4.42390322874e-10
1.34221217734e-11
4.38165130822e-10
1.22614575227e-11
4.34305424447e-10
1.1188476026e-11
4.30783587194e-10
1.02005848099e-11
4.27572854263e-10
9.29673663473e-12
4.24646990909e-10
8.47761154368e-12
4.21979997004e-10
7.74579996099e-12
4.19545874947e-10
7.10594688864e-12
4.17318520853e-10
6.56477564266e-12
4.15271829609e-10
6.13083117236e-12
4.13380137572e-10
5.8136344549e-12
4.11619134063e-10
5.62165695101e-12
4.09967240819e-10
5.55800030085e-12
4.08406788265e-10
5.61181180843e-12
4.06921890394e-10
5.74284247769e-12
5.85954062258e-12
9.57669808818e-10
1.09069288885e-10
9.82979976699e-10
2.42118197829e-10
9.95944628897e-10
3.0296703624e-10
9.93804124234e-10
3.17008737427e-10
9.79693287307e-10
3.0571039769e-10
9.57704538691e-10
2.82523550819e-10
9.31281765986e-10
2.54882256971e-10
9.02951974071e-10
2.26630275056e-10
8.74448633475e-10
1.99633924179e-10
8.46904781909e-10
1.7470467139e-10
8.21025068458e-10
1.52102811341e-10
7.97218715499e-10
1.31808842362e-10
7.75696482548e-10
1.13669097034e-10
7.56539316213e-10
9.74734509123e-11
7.39746082389e-10
8.29961580762e-11
7.25266314607e-10
7.00165725665e-11
7.13022416977e-10
5.8328895985e-11
7.02924530222e-10
4.77459883741e-11
6.94880336192e-10
3.81000391277e-11
6.88801395299e-10
2.92416548061e-11
6.84607124878e-10
2.10382270328e-11
6.82227183337e-10
1.33720528908e-11
6.8160278481e-10
6.13845984296e-12
6.82687301764e-10
-7.55936170202e-13
6.85446389345e-10
-7.39477013059e-12
6.89857795622e-10
-1.38532384027e-11
6.95910969006e-10
-2.01992228715e-11
7.03606508996e-10
-2.64941632653e-11
7.12955494716e-10
-3.27937033067e-11
7.23978700528e-10
-3.9148109376e-11
7.36705690698e-10
-4.56024551111e-11
7.51173771113e-10
-5.21965601708e-11
7.67426764344e-10
-5.89646661904e-11
7.85513564115e-10
-6.59348285551e-11
8.05486416378e-10
-7.31280000053e-11
8.27398866709e-10
-8.05567826003e-11
8.51303308451e-10
-8.82238300093e-11
8.77248063896e-10
-9.6119894874e-11
9.0527393381e-10
-1.04221539102e-10
9.35410161194e-10
-1.12488561846e-10
9.67669776921e-10
-1.20861253985e-10
1.00204433196e-09
-1.29257661412e-10
1.03849807805e-09
-1.37571131607e-10
1.07696174016e-09
-1.45668522492e-10
1.11732613139e-09
-1.53389553769e-10
1.15943599085e-09
-1.60547850935e-10
1.2030845641e-09
-1.66934229828e-10
1.24800956833e-09
-1.72322644722e-10
1.29389124958e-09
-1.76478929785e-10
1.34035319638e-09
-1.7917198057e-10
1.38696636741e-09
-1.80186379741e-10
1.43325637944e-09
-1.79334783402e-10
1.47871349077e-09
-1.76467897021e-10
1.52280403843e-09
-1.71480007369e-10
1.56498171017e-09
-1.6430929968e-10
1.6046974706e-09
-1.54934589681e-10
1.64140829511e-09
-1.43372247702e-10
1.67458601372e-09
-1.29676486114e-10
1.70372702382e-09
-1.13942582373e-10
1.72836227649e-09
-9.63111192426e-11
1.7480682727e-09
-7.69759778635e-11
1.76248320403e-09
-5.62006101513e-11
1.771330121e-09
-3.43342794821e-11
1.77444018417e-09
-1.18079090305e-11
1.77176639431e-09
1.08968579002e-11
1.76338533945e-09
3.32900720547e-11
1.74948882902e-09
5.49141110889e-11
1.7303659165e-09
7.53793440882e-11
1.70637822511e-09
9.43862122458e-11
1.6779370152e-09
1.11722558105e-10
1.64548805486e-09
1.27242674093e-10
1.60950242557e-09
1.40846841531e-10
1.57046924671e-09
1.52469460988e-10
1.52888937511e-09
1.62072024187e-10
1.48527023185e-09
1.69638874037e-10
1.44012042892e-09
1.75178018505e-10
1.39394236652e-09
1.78727253946e-10
1.34722236593e-09
1.80361658519e-10
1.3004195386e-09
1.80197680332e-10
1.25395521918e-09
1.78391419606e-10
1.20820447212e-09
1.75131484702e-10
1.16349049878e-09
1.70628352832e-10
1.12008213127e-09
1.65102474888e-10
1.07819414391e-09
1.58772985045e-10
1.03798984864e-09
1.51848254919e-10
9.99585334674e-10
1.44518908152e-10
9.63054724326e-10
1.36953398501e-10
9.28435901272e-10
1.29295900827e-10
8.95736286013e-10
1.2166607119e-10
8.64938356256e-10
1.1416017089e-10
8.360047192e-10
1.06853077384e-10
8.08882630656e-10
9.98007818349e-11
7.83507921149e-10
9.3043066956e-11
7.59808334106e-10
8.66061497749e-11
7.37706309918e-10
8.05051514395e-11
7.17121265961e-10
7.47463166834e-11
6.97971430285e-10
6.9328949491e-11
6.80175288273e-10
6.42470612582e-11
6.63652699534e-10
5.94907464201e-11
6.48325737865e-10
5.50473109865e-11
6.34119301729e-10
5.09021842571e-11
6.20961536706e-10
4.70396450608e-11
6.087841056e-10
4.3443392707e-11
5.97522336252e-10
4.00969903865e-11
5.87115272144e-10
3.69842058039e-11
5.77505646245e-10
3.40892707015e-11
5.68639794654e-10
3.13970780187e-11
5.60467523092e-10
2.88933327691e-11
5.52941936424e-10
2.65646704662e-11
5.46019238869e-10
2.43987550025e-11
5.39658510624e-10
2.23843663403e-11
5.33821465068e-10
2.05114870363e-11
5.28472189677e-10
1.87713954529e-11
5.23576873323e-10
1.7156772223e-11
5.1910352289e-10
1.56618248795e-11
5.15021673275e-10
1.42824329287e-11
5.11302097292e-10
1.30163112137e-11
5.07916525945e-10
1.18631815788e-11
5.04837395627e-10
1.08249290576e-11
5.02037647004e-10
9.90569436823e-12
4.99490610233e-10
9.11181133844e-12
4.97170018848e-10
8.45142153682e-12
4.95050188062e-10
7.93346428136e-12
4.93106333394e-10
7.56551073987e-12
4.91314780551e-10
7.34955238842e-12
4.89652132082e-10
7.2744597117e-12
4.8809089284e-10
7.30408135856e-12
7.36294728647e-12
9.53084457997e-10
9.34848389206e-11
9.77025311919e-10
2.18177358969e-10
9.94921301192e-10
2.85071061705e-10
1.00203268714e-09
3.09897366466e-10
9.98970608598e-10
3.08772491868e-10
9.88131464504e-10
2.93362711114e-10
9.72047015797e-10
2.70966722293e-10
9.5284156881e-10
2.45835738911e-10
9.32140023653e-10
2.2033548632e-10
9.11124798751e-10
1.95719913286e-10
8.90626610797e-10
1.72601016225e-10
8.71210485267e-10
1.5122498471e-10
8.53246623129e-10
1.31632975849e-10
8.36965482806e-10
1.1375460775e-10
8.2249934671e-10
9.74623105123e-11
8.09913148082e-10
8.26027873429e-11
7.99227063603e-10
6.90149964047e-11
7.90432916113e-10
5.65401515741e-11
7.83505980792e-10
4.50269898961e-11
7.78413406307e-10
3.43342444369e-11
7.7512015826e-10
2.43314898744e-11
7.73593157339e-10
1.48990681953e-11
7.7380410626e-10
5.92752481864e-12
7.75731366389e-10
-2.683182978e-12
7.79361131542e-10
-1.10245226423e-11
7.84688105637e-10
-1.91802006581e-11
7.91715805421e-10
-2.72269117568e-11
8.00456567802e-10
-3.52349158473e-11
8.10931318958e-10
-4.32684459374e-11
8.23169134867e-10
-5.13859182279e-11
8.37206602517e-10
-5.96399173788e-11
8.53086974323e-10
-6.80769284877e-11
8.70859094148e-10
-7.67367846384e-11
8.90576060922e-10
-8.56517962853e-11
9.12293584974e-10
-9.48455275525e-11
9.36067982656e-10
-1.04331186504e-10
9.61953747273e-10
-1.1410960373e-10
9.90000629508e-10
-1.24166789215e-10
1.02025016019e-09
-1.34471084964e-10
1.05273155481e-09
-1.44969974762e-10
1.08745695646e-09
-1.55586677047e-10
1.12441600642e-09
-1.66216735862e-10
1.16356978579e-09
-1.7672493852e-10
1.20484425374e-09
-1.8694302101e-10
1.24812342236e-09
-1.96668755988e-10
1.29324265541e-09
-2.05667120622e-10
1.33998264654e-09
-2.1367426067e-10