/*--------------------------------*- C++ -*----------------------------------*\
  =========                 |
  \\      /  F ield         | OpenFOAM: The Open Source CFD Toolbox
   \\    /   O peration     | Website:  https://openfoam.org
    \\  /    A nd           | Version:  7
     \\/     M anipulation  |
\*---------------------------------------------------------------------------*/
FoamFile
{
    version     2.0;
    format      ascii;
    class       volVectorField;
    location    "300";
    object      U;
}
// * * * * * * * * * * * * * * * * * * * * * * * * * * * * * * * * * * * * * //

dimensions      [0 1 -1 0 0 0 0];

internalField   nonuniform List<vector> 
8192
(
(0.00104344019007 0.000156559809933 0)
(0.000759259305934 0.00012762108143 0)
(0.000549238627485 8.23996112908e-05 0)
(0.000414005042701 5.28339874085e-05 0)
(0.000326254226681 3.49168425918e-05 0)
(0.000267329202122 2.40081965171e-05 0)
(0.000226157761301 1.71632595637e-05 0)
(0.000196296473036 1.26980447232e-05 0)
(0.000173932979165 9.66546592622e-06 0)
(0.000156741635888 7.52589484722e-06 0)
(0.000143252024852 5.96373435194e-06 0)
(0.000132499918679 4.78839060816e-06 0)
(0.000123830795408 3.88075204317e-06 0)
(0.000116786262748 3.16380057877e-06 0)
(0.000111036392425 2.58609029147e-06 0)
(0.000106338121902 2.11220138396e-06 0)
(0.000102508880546 1.71706176189e-06 0)
(9.940937216e-05 1.38246909094e-06 0)
(9.69320269455e-05 1.09489931819e-06 0)
(9.49930635052e-05 8.44088100119e-07 0)
(9.35269111042e-05 6.22089123668e-07 0)
(9.2482213492e-05 4.22634220873e-07 0)
(9.18189168607e-05 2.40689121087e-07 0)
(9.15061165949e-05 7.2138904095e-08 0)
(9.15204452228e-05 -8.6438650719e-08 0)
(9.18448520987e-05 -2.37938148325e-07 0)
(9.24676700181e-05 -3.8484842274e-07 0)
(9.33818955928e-05 -5.29344456632e-07 0)
(9.45846296311e-05 -6.73355462108e-07 0)
(9.60766350246e-05 -8.18614310557e-07 0)
(9.78619784065e-05 -9.66691870919e-07 0)
(9.99477273866e-05 -1.11901825058e-06 0)
(0.000102343677993 -1.27689175923e-06 0)
(0.000105062087804 -1.4414756368e-06 0)
(0.000108117389623 -1.61378186824e-06 0)
(0.000111525858785 -1.79464100416e-06 0)
(0.000115305204709 -1.9846565821e-06 0)
(0.000119474054635 -2.18414289491e-06 0)
(0.000124051295454 -2.39304531724e-06 0)
(0.000129055239265 -2.6108437118e-06 0)
(0.00013450258138 -2.83644146343e-06 0)
(0.000140407127855 -3.06804598281e-06 0)
(0.000146778285565 -3.30305073936e-06 0)
(0.000153619333206 -3.53793415853e-06 0)
(0.000160925527476 -3.76819589336e-06 0)
(0.000168682143764 -3.98835505714e-06 0)
(0.000176862600329 -4.1920354746e-06 0)
(0.000185426859834 -4.37215776345e-06 0)
(0.000194320328036 -4.5212444195e-06 0)
(0.000203473459391 -4.6318216211e-06 0)
(0.000212802217449 -4.69687223718e-06 0)
(0.000222209418941 -4.7102665067e-06 0)
(0.000231586830175 -4.66708370298e-06 0)
(0.000240817729786 -4.56375682592e-06 0)
(0.000249779574041 -4.39803051143e-06 0)
(0.000258346460109 -4.16880105852e-06 0)
(0.000266391271611 -3.87595871665e-06 0)
(0.000273787616103 -3.52033728613e-06 0)
(0.000280411820764 -3.10382273344e-06 0)
(0.000286145338383 -2.62965482472e-06 0)
(0.000290877988801 -2.10296095867e-06 0)
(0.000294512420907 -1.53144283969e-06 0)
(0.000296969754076 -9.25869232453e-07 0)
(0.000298195548658 -2.99912245544e-07 0)
(0.000298164621163 3.30844243105e-07 0)
(0.000296883323859 9.50448585331e-07 0)
(0.000294388646055 1.54421564254e-06 0)
(0.000290744339724 2.10006815411e-06 0)
(0.000286035010682 2.60922981488e-06 0)
(0.00028035963598 3.06610595988e-06 0)
(0.000273825922085 3.46756210588e-06 0)
(0.000266546257655 3.81205076301e-06 0)
(0.000258635225346 4.09892558468e-06 0)
(0.000250208204922 4.32803585036e-06 0)
(0.000241380526018 4.49958236472e-06 0)
(0.000232266670311 4.61421212094e-06 0)
(0.00022297910407 4.67329333312e-06 0)
(0.000213626511012 4.6792400729e-06 0)
(0.00020431148236 4.63573052193e-06 0)
(0.000195127978045 4.54771756754e-06 0)
(0.00018615898466 4.42122150948e-06 0)
(0.000177474744532 4.262966216e-06 0)
(0.000169131779021 4.0799487409e-06 0)
(0.00016117275646 3.87902504247e-06 0)
(0.000153627115369 3.66656898281e-06 0)
(0.000146512268398 3.44823257417e-06 0)
(0.000139835180786 3.22881123218e-06 0)
(0.000133594126044 3.01220127387e-06 0)
(0.000127780455463 2.80142860815e-06 0)
(0.000122380262293 2.59872537358e-06 0)
(0.000117375865664 2.4056335564e-06 0)
(0.000112747077112 2.22311876777e-06 0)
(0.000108472241237 2.05168234032e-06 0)
(0.000104529061371 1.891464213e-06 0)
(0.000100895232551 1.74233274934e-06 0)
(9.75489093235e-05 1.60396007862e-06 0)
(9.44690369779e-05 1.47588332989e-06 0)
(9.16355731947e-05 1.35755298277e-06 0)
(8.9029624094e-05 1.24837011314e-06 0)
(8.66335151026e-05 1.14771433405e-06 0)
(8.44308134277e-05 1.05496424298e-06 0)
(8.24063155953e-05 9.69511916168e-07 0)
(8.05460105499e-05 8.90772849014e-07 0)
(7.88370263368e-05 8.18192437577e-07 0)
(7.72675663131e-05 7.51249965386e-07 0)
(7.58268391663e-05 6.89460812915e-07 0)
(7.45049856436e-05 6.32377534508e-07 0)
(7.32930037894e-05 5.79590276078e-07 0)
(7.2182673539e-05 5.30726998632e-07 0)
(7.11664806939e-05 4.85453875572e-07 0)
(7.02375394991e-05 4.43476290668e-07 0)
(6.93895122123e-05 4.04540849786e-07 0)
(6.86165230704e-05 3.68438970281e-07 0)
(6.79130628196e-05 3.3501272838e-07 0)
(6.7273878282e-05 3.04163974511e-07 0)
(6.66938390147e-05 2.75868125182e-07 0)
(6.61677695227e-05 2.5019481737e-07 0)
(6.56902299568e-05 2.27338768307e-07 0)
(6.52552194651e-05 2.07666262592e-07 0)
(6.48557620775e-05 1.91786133068e-07 0)
(6.44833112063e-05 1.80660163913e-07 0)
(6.41268689163e-05 1.7577792245e-07 0)
(6.37716506405e-05 1.79436484763e-07 0)
(6.33970299921e-05 1.95180620809e-07 0)
(6.29734133284e-05 2.28432862697e-07 0)
(6.24579752655e-05 2.8700248073e-07 0)
(6.17915226809e-05 3.79447989531e-07 0)
(6.09251369657e-05 4.86936315709e-07 0)
(0.00121015050459 0.000302969122906 0)
(0.00116027392003 0.000315269265916 0)
(0.00102696271339 0.000238083353583 0)
(0.000887719041134 0.000171627543058 0)
(0.00076736462753 0.000124228558001 0)
(0.000669364809807 9.16213665296e-05 0)
(0.000591004441759 6.9081943546e-05 0)
(0.000528447683346 5.31974545821e-05 0)
(0.00047824972254 4.17275598732e-05 0)
(0.000437669615991 3.32353016946e-05 0)
(0.000404617860606 2.67957466014e-05 0)
(0.000377522051006 2.18043484162e-05 0)
(0.000355198301939 1.785772241e-05 0)
(0.000336749203599 1.46805185913e-05 0)
(0.000321488107355 1.20803977983e-05 0)
(0.0003088843771 9.91995524595e-06 0)
(0.000298524080739 8.09890794343e-06 0)
(0.00029008170282 6.54257339104e-06 0)
(0.000283299642188 5.19426702459e-06 0)
(0.000277973209295 4.01018501701e-06 0)
(0.000273939531286 2.95589319311e-06 0)
(0.000271069258538 2.00387353596e-06 0)
(0.000269260300533 1.13178008113e-06 0)
(0.000268433047796 3.2117936871e-07 0)
(0.000268526693462 -4.43372035327e-07 0)
(0.00026949637475 -1.17500843423e-06 0)
(0.000271310929756 -1.88506328328e-06 0)
(0.000273951119291 -2.58345347883e-06 0)
(0.000277408197704 -3.27896405299e-06 0)
(0.000281682739026 -3.97945383109e-06 0)
(0.000286783641568 -4.69199574601e-06 0)
(0.000292727244306 -5.42295948888e-06 0)
(0.000299536493904 -6.17803989096e-06 0)
(0.000307240103008 -6.96223120456e-06 0)
(0.000315871639664 -7.77974502959e-06 0)
(0.000325468485109 -8.6338680392e-06 0)
(0.000336070593912 -9.52675507836e-06 0)
(0.000347718987731 -1.04591540742e-05 0)
(0.000360453913805 -1.14300620523e-05 0)
(0.000374312604045 -1.2436317181e-05 0)
(0.000389326583356 -1.34721408496e-05 0)
(0.000405518500255 -1.45286569545e-05 0)
(0.000422898492408 -1.5593432603e-05 0)
(0.000441460157096 -1.66501041961e-05 0)
(0.000461176271967 -1.76781719553e-05 0)
(0.000481994500444 -1.86530590413e-05 0)
(0.000503833408047 -1.95465303137e-05 0)
(0.000526579192094 -2.03275415971e-05 0)
(0.000550083561733 -2.09635350744e-05 0)
(0.00057416316901 -2.14221087198e-05 0)
(0.000598600861051 -2.16728776246e-05 0)
(0.000623148794606 -2.16892424343e-05 0)
(0.000647533160508 -2.14497355595e-05 0)
(0.000671459990476 -2.09386900387e-05 0)
(0.00069462138325 -2.01461952343e-05 0)
(0.000716701592796 -1.90675990624e-05 0)
(0.000737382756475 -1.77030103312e-05 0)
(0.000756350442036 -1.60571989612e-05 0)
(0.000773299463175 -1.41400807357e-05 0)
(0.000787940530451 -1.19678883599e-05 0)
(0.000800008374684 -9.56514379049e-06 0)
(0.000809271864795 -6.96712133969e-06 0)
(0.000815545887627 -4.22150537885e-06 0)
(0.000818703357219 -1.3875201824e-06 0)
(0.000818684649677 1.468084866e-06 0)
(0.000815501998414 4.27713122638e-06 0)
(0.000809237715553 6.97644559567e-06 0)
(0.000800036615342 9.51317479504e-06 0)
(0.000788094337989 1.18476393306e-05 0)
(0.000773644219989 1.39530808647e-05 0)
(0.000756945324054 1.5813073556e-05 0)
(0.000738273103509 1.74182889221e-05 0)
(0.000717912784854 1.87638946748e-05 0)
(0.000696154767042 1.98479564171e-05 0)
(0.000673291153219 2.06708042631e-05 0)
(0.000649612546596 2.12353032531e-05 0)
(0.000625404356119 2.15478125852e-05 0)
(0.000600942192521 2.16193354019e-05 0)
(0.000576486452843 2.14662663744e-05 0)
(0.000552276655781 2.11103510281e-05 0)
(0.000528526297861 2.05778122207e-05 0)
(0.000505418921419 1.989786955e-05 0)
(0.000483105823893 1.91009901712e-05 0)
(0.000461705526901 1.82171888101e-05 0)
(0.00044130485919 1.7274603315e-05 0)
(0.000421961333513 1.6298463628e-05 0)
(0.000403706419069 1.53104782673e-05 0)
(0.000386549310591 1.43285966769e-05 0)
(0.000370480846935 1.33670697782e-05 0)
(0.000355477310085 1.24367196354e-05 0)
(0.000341503919738 1.15453347456e-05 0)
(0.000328517915149 1.06981222683e-05 0)
(0.000316471177956 9.89816656468e-06 0)
(0.000305312395061 9.14686056781e-06 0)
(0.000294988790487 8.44429083856e-06 0)
(0.000285447472231 7.7895678292e-06 0)
(0.000276636447656 7.18110024011e-06 0)
(0.000268505361871 6.61681683068e-06 0)
(0.000261006010422 6.09434150514e-06 0)
(0.000254092672147 5.61112842913e-06 0)
(0.000247722301695 5.1645640244e-06 0)
(0.000241854614733 4.75204218388e-06 0)
(0.000236452092703 4.37101835754e-06 0)
(0.000231479928585 4.01904732522e-06 0)
(0.000226905930283 3.69380872567e-06 0)
(0.000222700394243 3.3931236932e-06 0)
(0.00021883595846 3.11496540391e-06 0)
(0.000215287441149 2.85746585882e-06 0)
(0.000212031668854 2.61892093514e-06 0)
(0.000209047295618 2.39779552591e-06 0)
(0.000206314612781 2.19273055827e-06 0)
(0.00020381534701 2.00255375829e-06 0)
(0.000201532442098 1.82629632328e-06 0)
(0.00019944981775 1.66321813572e-06 0)
(0.000197552095887 1.51284495439e-06 0)
(0.000195824281796 1.37502218684e-06 0)
(0.000194251383672 1.24999162627e-06 0)
(0.000192817949796 1.13850010412e-06 0)
(0.000191507498486 1.04195275282e-06 0)
(0.000190301814055 9.62628685384e-07 0)
(0.000189180087789 9.03983061812e-07 0)
(0.000188117910947 8.71063474038e-07 0)
(0.000187086213753 8.71056695224e-07 0)
(0.000186050483546 9.13902580867e-07 0)
(0.000184971231385 1.01257222124e-06 0)
(0.000183808273958 1.18125254999e-06 0)
(0.000182536182219 1.42373791379e-06 0)
(0.00018117613298 1.66907874983e-06 0)
(0.00122477709143 0.000268041541548 0)
(0.00124110411602 0.00038374644869 0)
(0.00119631402706 0.000347707519153 0)
(0.00111377405277 0.000283787076044 0)
(0.00102110968478 0.000225087859695 0)
(0.000932015697167 0.000177855925437 0)
(0.000851911968266 0.000141311539214 0)
(0.000782181492552 0.000113255152974 0)
(0.000722445910999 9.16034659274e-05 0)
(0.000671672106838 7.47133704128e-05 0)
(0.000628676537845 6.13650681452e-05 0)
(0.000592336557394 5.06708845205e-05 0)
(0.000561665211275 4.19863507577e-05 0)
(0.000535825621618 3.48406491783e-05 0)
(0.000514120889251 2.88861684835e-05 0)
(0.000495975905814 2.3862972721e-05 0)
(0.000480918167682 1.95740013517e-05 0)
(0.000468560361464 1.58677425644e-05 0)
(0.0004585855498 1.26260507906e-05 0)
(0.000450734965471 9.75550147006e-06 0)
(0.000444798116118 7.18118961309e-06 0)
(0.000440604823815 4.84223035275e-06 0)
(0.000438018839142 2.68845696008e-06 0)
(0.000436932717094 6.77971280631e-07 0)
(0.000437263695607 -1.22469098564e-06 0)
(0.000438950363922 -3.04993867298e-06 0)
(0.000441949950874 -4.82417118745e-06 0)
(0.000446236097388 -6.57057429057e-06 0)
(0.000451796997382 -8.30971068861e-06 0)
(0.000458633808009 -1.0059944466e-05 0)
(0.000466759242939 -1.18377241003e-05 0)
(0.00047619626938 -1.36577379515e-05 0)
(0.000486976832716 -1.5532948053e-05 0)
(0.000499140532878 -1.74745019888e-05 0)
(0.000512733174549 -1.94915181875e-05 0)
(0.000527805110133 -2.15907374235e-05 0)
(0.000544409291245 -2.37760330015e-05 0)
(0.000562598943073 -2.60477750872e-05 0)
(0.000582424778599 -2.84020519056e-05 0)
(0.000603931679346 -3.08297637205e-05 0)
(0.000627154789651 -3.33156257505e-05 0)
(0.000652115006595 -3.5837144562e-05 0)
(0.000678813901505 -3.83636681548e-05 0)
(0.000707228183996 -4.08556501161e-05 0)
(0.000737303915321 -4.32643056556e-05 0)
(0.000768950788652 -4.5531860757e-05 0)
(0.000802036906241 -4.75925886985e-05 0)
(0.000836384574819 -4.93747731216e-05 0)
(0.000871767679881 -5.080361886e-05 0)
(0.000907911152274 -5.18049492618e-05 0)
(0.00094449287771 -5.23093037349e-05 0)
(0.000981148115047 -5.22558411268e-05 0)
(0.00101747611809 -5.15953645416e-05 0)
(0.00105304829667 -5.0291933231e-05 0)
(0.0010874170606 -4.83229775577e-05 0)
(0.00112012461101 -4.56784513163e-05 0)
(0.00115071137936 -4.23599716776e-05 0)
(0.00117872433637 -3.83807703168e-05 0)
(0.00120372569369 -3.3766788676e-05 0)
(0.00122530257976 -2.85590477711e-05 0)
(0.0012430783596 -2.2817538347e-05 0)
(0.00125672628949 -1.66260952324e-05 0)
(0.00126598535867 -1.00955928742e-05 0)
(0.00127067624593 -3.36178160989e-06 0)
(0.00127071377681 3.42350721313e-06 0)
(0.00126611267281 1.01054246297e-05 0)
(0.00125698524526 1.65398001509e-05 0)
(0.00124353154679 2.26045351917e-05 0)
(0.00122602407513 2.82059253397e-05 0)
(0.00120479043111 3.32784384207e-05 0)
(0.00118019738425 3.77795280216e-05 0)
(0.00115263821434 4.16830856435e-05 0)
(0.0011225233102 4.49741768452e-05 0)
(0.00109027312123 4.764573603e-05 0)
(0.00105631247712 4.96971394737e-05 0)
(0.00102106530363 5.11346091916e-05 0)
(0.000984948814654 5.19730527197e-05 0)
(0.00094836664577 5.22383005809e-05 0)
(0.000911701069191 5.19684964712e-05 0)
(0.0008753050327 5.12138391881e-05 0)
(0.000839495014091 5.00345902503e-05 0)
(0.000804545559635 4.84978162442e-05 0)
(0.000770686033181 4.66735647368e-05 0)
(0.000738099711661 4.46311328998e-05 0)
(0.000706925035612 4.24359055485e-05 0)
(0.000677258607829 4.01470195142e-05 0)
(0.000649159433368 3.78159178267e-05 0)
(0.000622653889183 3.54857180672e-05 0)
(0.000597740971304 3.31912398925e-05 0)
(0.000574397461329 3.09595079926e-05 0)
(0.000552582757262 2.88105541705e-05 0)
(0.000532243209865 2.67583700161e-05 0)
(0.000513315885363 2.48118976517e-05 0)
(0.000495731735666 2.29759813386e-05 0)
(0.000479418198783 2.12522331138e-05 0)
(0.000464301277799 1.9639788912e-05 0)
(0.000450307160118 1.81359482695e-05 0)
(0.000437363443147 1.67367013425e-05 0)
(0.000425400031209 1.54371532604e-05 0)
(0.000414349763523 1.42318587452e-05 0)
(0.00040414882627 1.31150808408e-05 0)
(0.000394736994329 1.20809870686e-05 0)
(0.000386057740787 1.11237952176e-05 0)
(0.000378058245442 1.02378794416e-05 0)
(0.000370689327266 9.41784587354e-06 0)
(0.000363905320319 8.65858549458e-06 0)
(0.0003576639079 7.95531082315e-06 0)
(0.000351925925653 7.30358194009e-06 0)
(0.000346655140858 6.69932666547e-06 0)
(0.000341818012089 6.13885915288e-06 0)
(0.000337383430728 5.61890096789e-06 0)
(0.000333322443345 5.1366086815e-06 0)
(0.000329607951701 4.68961233583e-06 0)
(0.000326214384959 4.27606966029e-06 0)
(0.000323117336812 3.89474182309e-06 0)
(0.000320293158801 3.54509760933e-06 0)
(0.000317718500694 3.22745429845e-06 0)
(0.000315369790717 2.94316469324e-06 0)
(0.00031322265499 2.69486001691e-06 0)
(0.000311251291634 2.48675530449e-06 0)
(0.000309427849833 2.32501177652e-06 0)
(0.000307721935515 2.21811429368e-06 0)
(0.000306100506172 2.17712192202e-06 0)
(0.000304528686679 2.21537784434e-06 0)
(0.000302972517863 2.3465102759e-06 0)
(0.000301405420807 2.57736320075e-06 0)
(0.000299819833424 2.88530267575e-06 0)
(0.000298235961913 3.15143279787e-06 0)
(0.00122194605533 0.000221318408188 0)
(0.00125349878191 0.000382589868866 0)
(0.00125138022944 0.000395772788769 0)
(0.0012140350745 0.000355606983337 0)
(0.0011564859441 0.000303481499469 0)
(0.0010911294658 0.000253912802116 0)
(0.00102542939493 0.00021105851473 0)
(0.000963336400164 0.000175331702124 0)
(0.000906666913454 0.000145932040783 0)
(0.000856034316099 0.000121791254176 0)
(0.000811413977994 0.000101903149789 0)
(0.000772469379714 8.54174410131e-05 0)
(0.000738733781018 7.16467995343e-05 0)
(0.000709707807922 6.00458246491e-05 0)
(0.000684909293249 5.01843026141e-05 0)
(0.000663896582626 4.17225963308e-05 0)
(0.000646277457814 3.4391305553e-05 0)
(0.000631710539113 2.79752294131e-05 0)
(0.000619902986495 2.23009956966e-05 0)
(0.000610606588083 1.7227608198e-05 0)
(0.000603613348098 1.26392426095e-05 0)
(0.000598751140682 8.4397490187e-06 0)
(0.000595879694551 4.54844264935e-06 0)
(0.000594887009587 8.96867800701e-07 0)
(0.0005956862197 -2.57369926947e-06 0)
(0.0005982128688 -5.91416927674e-06 0)
(0.000602422551793 -9.16913035937e-06 0)
(0.000608288863733 -1.23779918065e-05 0)
(0.000615801589187 -1.55758353225e-05 0)
(0.000624965065381 -1.87940219142e-05 0)
(0.000635796652562 -2.20605826912e-05 0)
(0.00064832524277 -2.54004087307e-05 0)
(0.000662589735297 -2.8835244787e-05 0)
(0.000678637403005 -3.23834838443e-05 0)
(0.00069652206892 -3.60597538515e-05 0)
(0.000716302007641 -3.98742853554e-05 0)
(0.000738037482278 -4.38320496077e-05 0)
(0.000761787826538 -4.79316629983e-05 0)
(0.000787607985511 -5.21640667214e-05 0)
(0.000815544440762 -5.65110131157e-05 0)
(0.000845630469278 -6.09434236094e-05 0)
(0.000877880725978 -6.5419729304e-05 0)
(0.000912285200029 -6.98843622521e-05 0)
(0.000948802679144 -7.42666289147e-05 0)
(0.000987353963219 -7.84802555414e-05 0)
(0.00102781519363 -8.24239305232e-05 0)
(0.00107001179326 -8.59831553282e-05 0)
(0.00111371362086 -8.90336256266e-05 0)
(0.00115863199673 -9.14461743778e-05 0)
(0.00120441921513 -9.30930158212e-05 0)
(0.0012506709838 -9.38546664889e-05 0)
(0.00129693190617 -9.36265766157e-05 0)
(0.00134270367447 -9.23243414615e-05 0)
(0.00138745517783 -8.9886580988e-05 0)
(0.00143063344644 -8.62753060687e-05 0)
(0.0014716744745 -8.14746456426e-05 0)
(0.00151001353787 -7.54895542851e-05 0)
(0.00154509531998 -6.8345873628e-05 0)
(0.00157638447091 -6.00921433922e-05 0)
(0.00160337712682 -5.08031896108e-05 0)
(0.00162561405815 -4.05860692866e-05 0)
(0.00164269655484 -2.95879618827e-05 0)
(0.00165430539814 -1.80016213054e-05 0)
(0.00166022047655 -6.06171468238e-06 0)
(0.00166033618225 5.97019382968e-06 0)
(0.00165466843677 1.78275636931e-05 0)
(0.00164335191078 2.92615779945e-05 0)
(0.00162662814022 4.0060178728e-05 0)
(0.00160482693799 5.0058899352e-05 0)
(0.00157834537134 5.91406127092e-05 0)
(0.00154762883001 6.72268763209e-05 0)
(0.00151315634942 7.42673217786e-05 0)
(0.00147542969182 8.02314384981e-05 0)
(0.00143496487178 8.51034236274e-05 0)
(0.00139228510469 8.887980894e-05 0)
(0.00134791418986 9.15699803063e-05 0)
(0.00130236922686 9.31990922945e-05 0)
(0.00125615197968 9.38116416659e-05 0)
(0.00120973909495 9.34735861197e-05 0)
(0.00116357215797 9.22716959541e-05 0)
(0.0011180488368 9.03100483679e-05 0)
(0.00107351615208 8.77044733584e-05 0)
(0.00103026645781 8.45761043404e-05 0)
(0.0009885362458 8.10451020091e-05 0)
(0.000948507512466 7.7225319652e-05 0)
(0.000910311192377 7.32203254091e-05 0)
(0.000874032061231 6.91208877554e-05 0)
(0.000839714514773 6.50038069944e-05 0)
(0.000807368703279 6.09318465437e-05 0)
(0.000776976609709 5.69544691645e-05 0)
(0.000748497776623 5.31090926488e-05 0)
(0.000721874494662 4.94226218271e-05 0)
(0.000697036354583 4.59130700583e-05 0)
(0.000673904132557 4.25911393134e-05 0)
(0.000652393025814 3.94616767998e-05 0)
(0.000632415285741 3.65249640623e-05 0)
(0.000613882312199 3.37778222382e-05 0)
(0.00059670627957 3.12145353451e-05 0)
(0.000580801365185 2.88276047552e-05 0)
(0.000566084646708 2.66083536819e-05 0)
(0.000552476728609 2.45474028618e-05 0)
(0.000539902150332 2.26350384011e-05 0)
(0.000528289621077 2.0861491493e-05 0)
(0.000517572118625 1.92171475415e-05 0)
(0.000507686882867 1.76927001052e-05 0)
(0.000498575328538 1.62792627725e-05 0)
(0.000490182896314 1.49684502414e-05 0)
(0.000482458856801 1.37524381186e-05 0)
(0.0004753560779 1.2624009749e-05 0)
(0.000468830762643 1.15765973265e-05 0)
(0.000462842161612 1.06043240146e-05 0)
(0.000457352261583 9.70205340076e-06 0)
(0.000452325449972 8.86545267963e-06 0)
(0.000447728153171 8.09107605287e-06 0)
(0.000443528446061 7.37647519477e-06 0)
(0.000439695630421 6.72034363678e-06 0)
(0.000436199782324 6.12270138965e-06 0)
(0.000433011274291 5.58512361037e-06 0)
(0.000430100289409 5.11101070213e-06 0)
(0.000427436365441 4.70588184219e-06 0)
(0.000424988043432 4.3776397722e-06 0)
(0.000422722756241 4.13667931015e-06 0)
(0.000420607189022 3.99554577651e-06 0)
(0.000418608480871 3.96747488666e-06 0)
(0.000416696777284 4.0622800809e-06 0)
(0.000414849480145 4.27598351115e-06 0)
(0.000413055649807 4.56609756792e-06 0)
(0.000411310169639 4.79998829926e-06 0)
(0.00121697316856 0.000182399196558 0)
(0.00124928380885 0.000357645748499 0)
(0.00126617403232 0.000405945282588 0)
(0.00125682459862 0.000392129121918 0)
(0.00122700407079 0.000354329063703 0)
(0.00118501352371 0.000310412309381 0)
(0.00113739293119 0.000267879718439 0)
(0.00108850821616 0.000229488257048 0)
(0.00104103900754 0.000195914231023 0)
(0.000996510515466 0.000166970203986 0)
(0.000955702239542 0.000142152865234 0)
(0.00091893051886 0.000120884096243 0)
(0.000886234913064 0.00010261140093 0)
(0.00085749785749 8.68443044466e-05 0)
(0.000832519945825 7.31623020612e-05 0)
(0.000811066385118 6.12109215109e-05 0)
(0.000792895005615 5.0693538391e-05 0)
(0.000777772609669 4.13623653424e-05 0)
(0.000765484033851 3.30100427455e-05 0)
(0.000755836718414 2.54623299554e-05 0)
(0.000748662555733 1.85719788673e-05 0)
(0.000743818132596 1.22136990144e-05 0)
(0.000741184061461 6.28006590487e-06 0)
(0.000740663828155 6.78218995962e-07 0)
(0.000742182411662 -4.67278783007e-06 0)
(0.000745684820372 -9.84408234662e-06 0)
(0.00075113463009 -1.48986540824e-05 0)
(0.0007585125587 -1.98926531985e-05 0)
(0.000767815073538 -2.48763595228e-05 0)
(0.000779053014758 -2.98948614534e-05 0)
(0.00079225020203 -3.49884652686e-05 0)
(0.000807441979533 -4.01928432072e-05 0)
(0.000824673643804 -4.55389184788e-05 0)
(0.000843998689597 -5.10524774058e-05 0)
(0.000865476800376 -5.67534934603e-05 0)
(0.000889171502497 -6.26551461084e-05 0)
(0.000915147396555 -6.87625204001e-05 0)
(0.000943466877045 -7.50709833798e-05 0)
(0.000974186254624 -8.15642530892e-05 0)
(0.00100735120686 -8.82122083608e-05 0)
(0.00104299150714 -9.49685353544e-05 0)
(0.00108111502213 -0.000101768371619 0)
(0.00112170103021 -0.000108526188738 0)
(0.00116469300135 -0.000115134243775 0)
(0.00120999109345 -0.000121462012538 0)
(0.00125744475826 -0.000127357069162 0)
(0.00130684599757 -0.00013264786088 0)
(0.00135792394375 -0.000137148703887 0)
(0.00141034151866 -0.000140667061463 0)
(0.00146369490342 -0.000143012750391 0)
(0.00151751637758 -0.000144008196185 0)
(0.00157128072481 -0.000143498339525 0)
(0.00162441486183 -0.000141358506754 0)
(0.00167630973373 -0.000137498811867 0)
(0.00172633308683 -0.00013186471414 0)
(0.00177384183418 -0.000124435025138 0)
(0.00181819352057 -0.00011521993074 0)
(0.00185875740701 -0.000104261165742 0)
(0.00189492602289 -9.16346124151e-05 0)
(0.00192612758357 -7.74549269983e-05 0)
(0.00195183983525 -6.1883502011e-05 0)
(0.00197160720444 -4.51403816607e-05 0)
(0.00198506275101 -2.75135798108e-05 0)
(0.00199195209041 -9.35416600448e-06 0)
(0.00199215234633 8.94668696285e-06 0)
(0.00198568057297 2.6990588466e-05 0)
(0.00197269038128 4.44052668602e-05 0)
(0.00195345777754 6.08728589942e-05 0)
(0.00192835876834 7.61464265422e-05 0)
(0.00189784422205 9.00491980324e-05 0)
(0.00186241824119 0.000102460818398 0)
(0.00182262248645 0.000113301627646 0)
(0.00177902487334 0.000122521424592 0)
(0.00173221060605 0.000130092555308 0)
(0.00168277460442 0.000136006485434 0)
(0.00163131438638 0.000140274484307 0)
(0.00157842198791 0.000142932004124 0)
(0.00152467396446 0.000144044059724 0)
(0.00147061978521 0.000143708294071 0)
(0.00141676997473 0.000142053798123 0)
(0.00136358561706 0.000139235686395 0)
(0.00131147046472 0.000135426730858 0)
(0.00126076628064 0.000130807779565 0)
(0.0012117514653 0.000125558503591 0)
(0.00116464260351 0.000119849557213 0)
(0.00111959832351 0.000113836726218 0)
(0.0010767247733 0.00010765720072 0)
(0.00103608204462 0.000101427795725 0)
(0.000997690971294 9.52447634449e-05 0)
(0.000961539856684 8.91847756997e-05 0)
(0.000927590816437 8.33066694236e-05 0)
(0.000895785539655 7.7653608844e-05 0)
(0.000866050366353 7.22553969637e-05 0)
(0.000838300649663 6.71307476279e-05 0)
(0.00081244442009 6.2289397786e-05 0)
(0.000788385399972 5.77339932677e-05 0)
(0.000766025433482 5.34617206245e-05 0)
(0.000745266404722 4.94656839929e-05 0)
(0.000726011717044 4.57360423936e-05 0)
(0.000708167403002 4.22609318141e-05 0)
(0.000691642928186 3.90272003222e-05 0)
(0.000676351744899 3.60209849448e-05 0)
(0.000662211643952 3.32281576341e-05 0)
(0.00064914494544 3.06346651105e-05 0)
(0.000637078562406 2.82267845068e-05 0)
(0.000625943965056 2.59913137848e-05 0)
(0.000615677067647 2.39157132389e-05 0)
(0.000606218055329 2.19882120282e-05 0)
(0.000597511164099 2.01978917778e-05 0)
(0.000589504423478 1.85347577306e-05 0)
(0.000582149368594 1.69898068337e-05 0)
(0.000575400725967 1.55551012982e-05 0)
(0.000569216075534 1.42238556318e-05 0)
(0.000563555490366 1.29905446144e-05 0)
(0.000558381155372 1.18510390082e-05 0)
(0.00055365696745 1.08027743674e-05 0)
(0.000549348122532 9.84495534633e-06 0)
(0.00054542070091 8.97879164089e-06 0)
(0.000541841272264 8.20774915049e-06 0)
(0.000538576558049 7.53777509874e-06 0)
(0.000535593213312 6.97740730488e-06 0)
(0.000532857824295 6.53758251837e-06 0)
(0.000530337258996 6.23077011609e-06 0)
(0.000527999533847 6.06867945103e-06 0)
(0.000525815279925 6.05702935609e-06 0)
(0.000523759378614 6.18442993706e-06 0)
(0.000521810354342 6.40050400214e-06 0)
(0.000519940611503 6.58080393396e-06 0)
(0.00121290867764 0.000152517361831 0)
(0.00124201586273 0.000326109790449 0)
(0.00126651174758 0.000396095173873 0)
(0.001273439202 0.000404401250929 0)
(0.00126303834339 0.000382278363041 0)
(0.00123993460864 0.000347557335214 0)
(0.00120895123499 0.000309338703402 0)
(0.00117390959364 0.000271955674075 0)
(0.00113753638883 0.000237289273696 0)
(0.00110166618585 0.000205993903065 0)
(0.00106747510423 0.000178128570599 0)
(0.00103567602173 0.000153479241054 0)
(0.00100666572675 0.000131722203889 0)
(0.000980630911207 0.000112505419547 0)
(0.000957622655105 9.54874015924e-05 0)
(0.000937607934078 8.03541504817e-05 0)
(0.000920504788214 6.68248814386e-05 0)
(0.000906206046207 5.4652206753e-05 0)
(0.000894595114504 4.36197551748e-05 0)
(0.000885556308154 3.35387853865e-05 0)
(0.000878981452913 2.42445871024e-05 0)
(0.000874773957258 1.55930548835e-05 0)
(0.000872851179614 7.45760355505e-06 0)
(0.000873145655407 -2.73517137652e-07 0)
(0.00087560556231 -7.6994990452e-06 0)
(0.000880194678379 -1.49088540347e-05 0)
(0.000886892009362 -2.19809826877e-05 0)
(0.000895691185921 -2.89873911501e-05 0)
(0.000906599682375 -3.59925964143e-05 0)
(0.000919637884956 -4.30547344854e-05 0)
(0.000934838010385 -5.02258740737e-05 0)
(0.000952242855559 -5.7552029699e-05 0)
(0.000971904342693 -6.50728599748e-05 0)
(0.000993881810214 -7.28210302578e-05 0)
(0.00101823998752 -8.08212146384e-05 0)
(0.00104504658118 -8.90887120057e-05 0)
(0.0010743693921 -9.76276565037e-05 0)
(0.0011062728783 -0.000106428817009 0)
(0.00114081407853 -0.000115467006564 0)
(0.0011780378208 -0.000124698165078 0)
(0.00121797116039 -0.00013405624066 0)
(0.00126061702968 -0.000143450079209 0)
(0.0013059471424 -0.000152760637006 0)
(0.00135389428365 -0.000161838949334 0)
(0.00140434423779 -0.000170505401002 0)
(0.00145712775823 -0.00017855092001 0)
(0.00151201315517 -0.000185740706501 0)
(0.00156870024475 -0.00019182096017 0)
(0.00162681652346 -0.000196528730352 0)
(0.00168591644541 -0.000199604464298 0)
(0.00174548452083 -0.000200806111079 0)
(0.00180494255798 -0.000199922889485 0)
(0.00186366071694 -0.00019678633207 0)
(0.00192097121869 -0.000191276435614 0)
(0.0019761828791 -0.000183322172701 0)
(0.00202859467569 -0.000172898170203 0)
(0.00207750769006 -0.000160021535047 0)
(0.00212223635766 -0.000144752151869 0)
(0.00216212034402 -0.000127196252416 0)
(0.0021965371522 -0.000107511667939 0)
(0.00222491555148 -8.59174140723e-05 0)
(0.00224675294511 -6.27112270072e-05 0)
(0.00226164052802 -3.82858541017e-05 0)
(0.00226929299531 -1.31236867747e-05 0)
(0.00226957221023 1.22367487795e-05 0)
(0.00226249710961 3.72474128765e-05 0)
(0.00224823946782 6.13962901603e-05 0)
(0.00222710703713 8.42468890334e-05 0)
(0.00219951625063 0.000105462218851 0)
(0.0021659617538 0.000124802486026 0)
(0.00212699204484 0.000142103270069 0)
(0.00208319390747 0.000157253131932 0)
(0.00203518187025 0.000170179648882 0)
(0.00198358951796 0.000180841042623 0)
(0.00192906214845 0.000189221473453 0)
(0.00187225002289 0.000195331953903 0)
(0.00181380018908 0.000199216887823 0)
(0.00175434542877 0.000200962084762 0)
(0.0016944908189 0.000200699183983 0)
(0.00163479984498 0.000198603816444 0)
(0.00157578220243 0.000194887787775 0)
(0.00151788478138 0.000189787316222 0)
(0.00146148648323 0.00018354978246 0)
(0.00140689681611 0.000176421081143 0)
(0.00135435775523 0.000168634991925 0)
(0.00130404811732 0.000160405290486 0)
(0.00125608963776 0.000151920738797 0)
(0.00121055400038 0.000143342687925 0)
(0.00116747019986 0.000134804801185 0)
(0.00112683177105 0.000126414329636 0)
(0.00108860356829 0.000118254399282 0)
(0.00105272790391 0.000110386853907 0)
(0.00101912995316 0.000102855303185 0)
(0.000987722403363 9.56881291543e-05 0)
(0.000958409372175 8.8901292932e-05 0)
(0.000931089648562 8.25008530442e-05 0)