/*--------------------------------*- C++ -*----------------------------------*\
  =========                 |
  \\      /  F ield         | OpenFOAM: The Open Source CFD Toolbox
   \\    /   O peration     | Website:  https://openfoam.org
    \\  /    A nd           | Version:  7
     \\/     M anipulation  |
\*---------------------------------------------------------------------------*/
FoamFile
{
    version     2.0;
    format      ascii;
    class       volScalarField;
    location    "9.00072e+07";
    object      eps;
}
// * * * * * * * * * * * * * * * * * * * * * * * * * * * * * * * * * * * * * //

dimensions      [0 0 0 0 0 0 0];

internalField   nonuniform List<scalar> 
80
(
0.474759
0.435833
0.393734
0.368879
0.357483
0.352823
0.351036
0.350376
0.350137
0.350052
0.350021
0.35001
0.350006
0.350005
0.350004
0.350004
0.350004
0.350003
0.350003
0.350003
0.350003
0.350003
0.350003
0.350003
0.350003
0.350003
0.350003
0.350003
0.350003
0.350003
0.350003
0.350003
0.350003
0.350003
0.350003
0.350003
0.350002
0.350002
0.350002
0.350002
0.350002
0.350002
0.350002
0.350002
0.350002
0.350002
0.350002
0.350002
0.350002
0.350002
0.350002
0.350002
0.350002
0.350002
0.350002
0.350002
0.350002
0.350002
0.350002
0.350002
0.350002
0.350002
0.350002
0.350002
0.350002
0.350002
0.350002
0.350002
0.350002
0.350002
0.350002
0.350002
0.350002
0.350002
0.350002
0.350002
0.350002
0.350002
0.350002
0.350002
)
;

boundaryField
{
    outlet
    {
        type            zeroGradient;
    }
    inlet
    {
        type            zeroGradient;
    }
    frontAndBack
    {
        type            empty;
    }
}


// ************************************************************************* //
