/*--------------------------------*- C++ -*----------------------------------*\
  =========                 |
  \\      /  F ield         | OpenFOAM: The Open Source CFD Toolbox
   \\    /   O peration     | Website:  https://openfoam.org
    \\  /    A nd           | Version:  7
     \\/     M anipulation  |
\*---------------------------------------------------------------------------*/
FoamFile
{
    version     2.0;
    format      ascii;
    class       volScalarField;
    location    "1200";
    object      Ci;
}
// * * * * * * * * * * * * * * * * * * * * * * * * * * * * * * * * * * * * * //

dimensions      [0 -3 0 0 1 0 0];

internalField   nonuniform List<scalar> 
8192
(
9.99999997641
10.0000000823
10.0000002368
10.0000004404
10.0000007031
10.0000010154
10.0000013647
10.0000017397
10.0000021314
10.0000025329
10.0000029384
10.0000033429
10.0000037421
10.0000041319
10.0000045087
10.0000048686
10.0000052083
10.0000055244
10.0000058139
10.0000060733
10.0000063002
10.0000064912
10.0000066442
10.0000067566
10.0000068266
10.0000068521
10.0000068319
10.0000067639
10.0000066473
10.00000648
10.0000062617
10.0000059904
10.0000056666
10.0000052888
10.0000048582
10.0000043736
10.000003837
10.0000032477
10.0000026088
10.0000019202
10.0000011861
10.000000407
9.9999995884
9.99999873133
9.99999784279
9.99999692427
9.99999598433
9.99999502525
9.99999405759
9.999993085
9.99999212093
9.99999117123
9.99999025299
9.99998937462
9.99998855675
9.99998780954
9.99998715543
9.99998660391
9.99998617593
9.99998587636
9.99998572025
9.99998570422
9.9999858353
9.99998610308
9.99998651101
9.99998704836
9.99998772056
9.99998851823
9.99998944475
9.99999048505
9.99999163371
9.99999286724
9.99999417305
9.99999552419
9.99999690666
9.99999829524
9.99999967817
10.0000010345
10.0000023561
10.0000036271
10.0000048437
10.0000059951
10.0000070811
10.0000080951
10.0000090399
10.0000099121
10.0000107163
10.0000114513
10.0000121226
10.0000127307
10.0000132813
10.0000137757
10.0000142195
10.0000146142
10.0000149654
10.0000152756
10.0000155523
10.0000157972
10.0000160147
10.0000162054
10.0000163727
10.000016517
10.0000166414
10.0000167462
10.000016834
10.0000169052
10.0000169623
10.0000170055
10.000017037
10.0000170569
10.0000170675
10.0000170686
10.0000170622
10.0000170481
10.0000170279
10.0000170011
10.0000169691
10.0000169308
10.0000168869
10.0000168357
10.0000167766
10.0000167071
10.0000166258
10.0000165305
10.0000164225
10.0000163071
10.000016199
10.0000161232
10.0000000094
10.0000001402
10.0000002872
10.000000464
10.0000006835
10.0000009462
10.0000012472
10.0000015796
10.0000019357
10.0000023082
10.0000026906
10.000003077
10.0000034625
10.0000038423
10.0000042125
10.0000045689
10.000004908
10.0000052261
10.0000055202
10.0000057868
10.0000060234
10.0000062264
10.0000063938
10.0000065231
10.0000066127
10.0000066604
10.0000066652
10.0000066249
10.0000065391
10.0000064054
10.0000062233
10.0000059915
10.0000057101
10.0000053782
10.0000049966
10.0000045647
10.0000040841
10.0000035546
10.0000029787
10.0000023567
10.0000016922
10.0000009857
10.000000242
9.99999946214
9.99999865189
9.99999781256
9.99999695121
9.9999960697
9.99999517672
9.99999427526
9.99999337636
9.99999248494
9.99999161504
9.99999077389
9.99998997838
9.99998923739
9.99998856934
9.9999879829
9.99998749537
9.99998711235
9.99998684688
9.99998669905
9.99998667641
9.99998677465
9.99998699895
9.99998734485
9.99998781822
9.99998841465
9.99998913738
9.99998997683
9.99999092891
9.99999197691
9.99999311045
9.99999430882
9.99999555916
9.99999684032
9.99999813967
9.99999943781
10.0000007241
10.0000019823
10.000003205
10.0000043799
10.0000055029
10.0000065658
10.0000075677
10.0000085039
10.0000093759
10.0000101817
10.0000109245
10.0000116041
10.000012225
10.000012788
10.0000132979
10.0000137562
10.0000141676
10.0000145349
10.0000148685
10.0000151682
10.0000154372
10.0000156765
10.000015889
10.0000160756
10.0000162392
10.0000163805
10.000016502
10.0000166044
10.0000166901
10.0000167596
10.000016815
10.0000168569
10.0000168872
10.0000169061
10.0000169156
10.0000169157
10.000016908
10.0000168923
10.0000168698
10.0000168399
10.0000168032
10.0000167584
10.000016705
10.0000166407
10.0000165641
10.0000164728
10.0000163675
10.0000162538
10.0000161458
10.0000160545
10.0000000118
10.0000001523
10.0000002933
10.0000004451
10.0000006215
10.0000008263
10.0000010598
10.0000013204
10.0000016051
10.00000191
10.0000022307
10.0000025624
10.0000029004
10.0000032402
10.0000035776
10.0000039083
10.0000042286
10.0000045348
10.0000048236
10.0000050917
10.0000053365
10.0000055548
10.0000057445
10.0000059029
10.0000060286
10.0000061193
10.000006174
10.0000061907
10.0000061692
10.0000061078
10.0000060061
10.0000058631
10.0000056791
10.0000054532
10.0000051863
10.0000048777
10.0000045292
10.0000041402
10.0000037131
10.0000032474
10.0000027465
10.0000022096
10.0000016414
10.0000010403
10.0000004121
9.99999975519
9.99999907593
9.99999837264
9.99999765305
9.99999691576
9.99999617041
9.99999541663
9.99999466661
9.99999392156
9.99999319636
9.99999249363
9.99999183025
9.99999120926
9.99999064786
9.99999014782
9.99998972453
9.99998937686
9.99998911731
9.99998894226
9.99998886288
9.9999888758
9.99998899292
9.99998921158
9.99998954214
9.9999899789
9.99999052681
9.99999117512
9.99999192328
9.99999275689
9.99999367169
9.99999465126
9.99999568886
9.99999676713
9.99999787802
9.99999900452
10.0000001386
10.000001265
10.000002377
10.0000034619
10.0000045151
10.000005527
10.0000064954
10.0000074136
10.0000082816
10.0000090955
10.0000098568
10.0000105637
10.0000112189
10.0000118218
10.0000123759
10.0000128815
10.0000133439
10.0000137644
10.0000141471
10.000014493
10.0000148056
10.0000150856
10.0000153363
10.0000155584
10.0000157549
10.0000159264
10.0000160756
10.0000162031
10.0000163115
10.0000164011
10.0000164743
10.0000165315
10.0000165748
10.0000166044
10.0000166223
10.0000166285
10.0000166245
10.00001661
10.0000165862
10.0000165521
10.0000165081
10.0000164523
10.0000163839
10.0000163004
10.0000162016
10.0000160924
10.0000159856
10.0000158601
10.0000000097
10.0000001571
10.0000002965
10.0000004389
10.0000005949
10.0000007671
10.0000009571
10.0000011648
10.0000013898
10.0000016307
10.0000018857
10.0000021524
10.000002428
10.0000027094
10.0000029935
10.0000032769
10.0000035565
10.000003829
10.0000040916
10.0000043411
10.0000045751
10.000004791
10.0000049865
10.0000051596
10.0000053083
10.0000054312
10.0000055265
10.0000055936
10.0000056308
10.0000056382
10.0000056138
10.0000055591
10.0000054713
10.000005353
10.0000052012
10.000005019
10.0000048036
10.000004558
10.0000042803
10.0000039726
10.0000036344
10.0000032665
10.00000287
10.0000024445
10.0000019921
10.0000015121
10.0000010071
10.0000004765
9.99999992372
9.99999934857
9.9999987557
9.99999814616
9.99999752632
9.99999689887
9.99999627211
9.99999565041
9.9999950436
9.99999445711
9.99999390129
9.99999338138
9.99999290668
9.9999924807
9.99999211048
9.99999179751
9.99999154763
9.99999136248
9.99999124902
9.99999121009
9.99999125256
9.99999137745
9.99999158849
9.99999188336
9.99999226296
9.99999272286
9.99999326222
9.99999387498
9.99999455841
9.99999530457
9.99999610857
9.99999696076
9.99999785455
9.99999877923
9.9999997273
10.000000688
10.0000016537
10.0000026147
10.0000035643
10.0000044942
10.0000053995
10.0000062739
10.0000071143
10.0000079164
10.0000086786
10.0000093985
10.0000100759
10.0000107095
10.0000113004
10.0000118487
10.0000123562
10.0000128236
10.0000132528
10.0000136449
10.0000140019
10.0000143247
10.0000146155
10.0000148754
10.0000151064
10.0000153095
10.0000154867
10.0000156392
10.0000157687
10.0000158762
10.0000159636
10.0000160318
10.0000160824
10.0000161163
10.0000161348
10.0000161387
10.000016129
10.000016106
10.0000160701
10.0000160207
10.0000159574
10.0000158791
10.0000157859
10.0000156809
10.0000155823
10.0000154233
10.0000000122
10.0000001679
10.000000314
10.0000004555
10.0000006032
10.0000007593
10.0000009247
10.0000011012
10.0000012882
10.0000014855
10.0000016924
10.000001908
10.0000021309
10.0000023594
10.0000025916
10.0000028255
10.0000030588
10.0000032892
10.0000035146
10.0000037326
10.0000039413
10.0000041386
10.0000043224
10.0000044915
10.0000046434
10.0000047783
10.0000048925
10.0000049884
10.0000050603
10.0000051137
10.0000051397
10.0000051483
10.0000051259
10.0000050876
10.0000050154
10.0000049279
10.0000048052
10.0000046661
10.0000044924
10.0000042992
10.0000040739
10.0000038251
10.0000035467
10.0000032418
10.0000029091
10.0000025487
10.0000021617
10.0000017474
10.0000013083
10.0000008443
10.0000003588
9.99999985289
9.99999933172
9.99999879775
9.99999825792
9.99999771624
9.99999718112
9.99999665763
9.99999615489
9.99999567793
9.99999523506
9.99999482954
9.99999446719
9.99999414864
9.99999387771
9.99999365443
9.99999348317
9.99999336504
9.99999330457
9.99999330179
9.99999335912
9.99999347478
9.99999364998
9.99999388281
9.99999417453
9.99999452348
9.99999493051
9.99999539341
9.99999591182
9.99999648234
9.99999710296
9.99999776879
9.99999847601
9.99999921825
9.99999999016
10.0000007843
10.0000015946
10.0000024134
10.0000032345
10.0000040509
10.0000048572
10.0000056474
10.0000064174
10.0000071625
10.0000078797
10.0000085657
10.0000092188
10.0000098368
10.0000104191
10.0000109648
10.0000114738
10.0000119461
10.0000123822
10.0000127825
10.000013148
10.0000134792
10.0000137776
10.000014044
10.0000142798
10.000014486
10.0000146643
10.0000148156
10.0000149416
10.0000150436
10.000015123
10.0000151811
10.0000152194
10.0000152391
10.0000152415
10.0000152276
10.0000151981
10.0000151538
10.0000150942
10.0000150202
10.0000149303
10.0000148309
10.0000147346
10.000014592
10.0000000124
10.0000001755
10.0000003264
10.0000004722
10.0000006205
10.0000007718
10.0000009269
10.0000010864
10.0000012522
10.0000014237
10.0000016009
10.0000017834
10.0000019707
10.0000021619
10.0000023559
10.0000025516
10.0000027475
10.0000029423
10.0000031343
10.0000033223
10.0000035042
10.0000036796
10.0000038454
10.000004003
10.0000041468
10.0000042823
10.0000043987
10.0000045089
10.0000045928
10.0000046755
10.0000047219
10.0000047755
10.00000478
10.000004802
10.000004762
10.0000047473
10.0000046622
10.000004603
10.0000044743
10.0000043617
10.0000041899
10.0000040176
10.0000038002
10.0000035667
10.0000032991
10.0000030065
10.0000026853
10.0000023369
10.0000019625
10.0000015627
10.0000011401
10.0000006964
10.0000002355
9.99999976055
9.99999927716
9.99999879029
9.99999830688
9.99999783353
9.99999737813
9.99999694795
9.99999655036
9.9999961911
9.99999587453
9.99999560271
9.99999537651
9.99999519579
9.9999950609
9.99999497189
9.99999492899
9.99999493061
9.9999949751
9.99999505927
9.99999518159
9.99999533986
9.99999553432
9.9999957642
9.99999603092
9.99999633432
9.99999667611
9.99999705609
9.99999747559
9.99999793374
9.99999843072
9.99999896429
9.99999953295
10.0000001328
10.0000007608
10.0000014117
10.0000020812
10.0000027636
10.0000034539
10.0000041465
10.0000048365
10.0000055188
10.0000061891
10.0000068429
10.000007477
10.0000080876
10.0000086725
10.0000092289
10.0000097554
10.0000102503
10.0000107129
10.0000111423
10.0000115383
10.0000119008
10.0000122302
10.0000125267
10.0000127911
10.0000130241
10.0000132268
10.0000134001
10.0000135455
10.000013664
10.0000137573
10.0000138265
10.0000138735
10.0000138996
10.0000139064
10.0000138953
10.0000138674
10.0000138247
10.0000137659
10.0000136961
10.0000136069
10.0000135194
10.0000134103
10.000013326
10.0000000145
10.0000001836
10.0000003421
10.0000004922
10.0000006424
10.0000007926
10.0000009429
10.000001094
10.0000012468
10.0000014031
10.0000015622
10.0000017241
10.0000018887
10.0000020556
10.0000022242
10.000002394
10.0000025637
10.000002733
10.0000029
10.0000030652
10.000003225
10.0000033826
10.0000035304
10.0000036773
10.0000038075
10.0000039423
10.0000040482
10.0000041711
10.0000042442
10.0000043576
10.0000043879
10.0000044949
10.0000044725
10.0000045739
10.0000044927
10.0000045816
10.0000044449
10.0000045028
10.0000043242
10.0000043244
10.0000041211
10.000004041
10.0000038209
10.0000036542
10.0000034099
10.0000031671
10.0000028839
10.00000258
10.0000022491
10.000001894
10.0000015162
10.0000011174
10.0000007006
10.0000002689
9.99999982679
9.99999937927
9.99999893251
9.99999849351
9.99999807013
9.99999767071
9.99999730358
9.99999697598
9.9999966934
9.99999645876
9.99999627301
9.9999961355
9.99999604539
9.99999600118
9.9999960011
9.99999604175
9.99999611913
9.99999622853
9.99999636622
9.99999652895
9.99999671499
9.99999692301
9.99999715272
9.99999740398
9.99999767741
9.99999797373
9.99999829417
9.99999863985
9.99999901187
9.99999941086
9.99999983693
10.0000002895
10.0000007675
10.0000012689
10.0000017912
10.0000023314
10.000002886
10.0000034511
10.0000040228
10.000004597
10.0000051694
10.0000057361
10.0000062931
10.0000068369
10.000007364
10.0000078715
10.0000083567
10.0000088173
10.0000092514
10.0000096575
10.0000100344
10.0000103812
10.0000106975
10.000010983
10.0000112378
10.0000114623
10.000011657
10.0000118227
10.0000119604
10.0000120713
10.0000121567
10.0000122181
10.000012257
10.0000122752
10.0000122742
10.0000122562
10.0000122217
10.0000121747
10.0000121113
10.0000120436
10.0000119504
10.0000118803
10.0000117491
10.0000117374
10.0000000136
10.0000001869
10.0000003488
10.0000005042
10.000000659
10.0000008119
10.0000009622
10.0000011103
10.0000012573
10.0000014045
10.0000015531
10.0000017028
10.0000018535
10.0000020055
10.000002158
10.0000023113
10.0000024639
10.0000026169
10.0000027666
10.0000029173
10.0000030605
10.0000032075
10.0000033389
10.0000034827
10.0000035946
10.0000037386
10.0000038188
10.000003972
10.0000040019
10.0000041802
10.0000041334
10.0000043585
10.0000042045
10.0000044967
10.0000042124
10.0000045739
10.0000041635
10.000004559
10.0000040698
10.0000044213
10.0000039344
10.00000415
10.0000037367
10.0000037646
10.0000034381
10.0000032961
10.0000030107
10.0000027573
10.0000024566
10.000002138
10.0000017953
10.0000014301
10.000001045
10.0000006423
10.0000002256
9.99999979966
9.99999937012
9.99999894432
9.99999853031
9.99999813838
9.99999777821
9.9999974603
9.99999719167
9.99999697787
9.99999681963
9.99999671687
9.99999666671
9.99999666675
9.99999671246
9.99999679866
9.99999691886
9.99999706661
9.99999723715
9.99999742603
9.99999763136
9.99999785156
9.99999808632
9.9999983344
9.99999859589
9.99999887002
9.99999915756
9.99999945831
9.99999977348
10.000000103
10.0000004478
10.00000081
10.0000011899
10.0000015869
10.0000020003
10.0000024282
10.0000028692
10.0000033206
10.0000037801
10.0000042444
10.0000047106
10.0000051753
10.0000056355
10.0000060877
10.000006529
10.0000069562
10.0000073668
10.0000077582
10.0000081283
10.0000084751
10.0000087971
10.0000090932
10.0000093624
10.0000096041
10.0000098182
10.0000100045
10.0000101636
10.0000102959
10.0000104024
10.0000104841
10.0000105423
10.0000105784
10.0000105942
10.0000105914
10.0000105717
10.0000105377
10.0000104895
10.0000104329
10.0000103606
10.0000102928
10.0000101932
10.0000101404
10.0000099909
10.0000100383
10.0000000153
10.0000001929
10.0000003607
10.0000005198
10.0000006775
10.0000008325
10.0000009834
10.0000011304
10.0000012744
10.0000014166
10.0000015585
10.0000017004
10.0000018421
10.0000019845
10.0000021263
10.0000022693
10.00000241
10.0000025529
10.00000269
10.0000028329
10.0000029617
10.0000031063
10.0000032193
10.0000033713
10.0000034545
10.0000036282
10.0000036557
10.0000038798
10.0000038071
10.0000041322
10.000003889
10.0000043911
10.0000038834
10.0000046529
10.0000037862
10.0000048891
10.0000036241
10.0000050339
10.0000034592
10.0000049959
10.0000033589
10.0000047118
10.0000033315
10.0000042108
10.000003286
10.00000361
10.0000030891
10.0000030105
10.0000026789
10.0000024134
10.0000020976
10.0000017619
10.0000014048
10.0000010269
10.0000006309
10.0000002219
9.9999998039
9.99999938328
9.99999896859
9.99999857129
9.99999820323
9.99999787747
9.99999760433
9.99999739126
9.99999724071
9.99999715225
9.99999712257
9.9999971471
9.99999721983
9.99999733333
9.99999748028
9.99999765267
9.99999784494
9.99999805411
9.99999827828
9.99999851623
9.99999876671
9.99999902861
9.99999930063
9.99999958185
9.99999987135
10.0000001686
10.0000004731
10.0000007845
10.0000011024
10.0000014262
10.0000017571
10.0000020928
10.0000024369
10.00000279
10.0000031508
10.0000035183
10.0000038904
10.0000042655
10.0000046411
10.000005015
10.0000053846
10.0000057475
10.000006101
10.0000064426
10.0000067701
10.0000070811
10.0000073738
10.0000076464
10.0000078974
10.0000081257
10.0000083303
10.0000085106
10.0000086664
10.0000087978
10.0000089049
10.0000089885
10.0000090493
10.0000090885
10.0000091076
10.0000091078
10.0000090912
10.0000090595
10.0000090146
10.0000089592
10.0000088932
10.0000088237
10.0000087412
10.0000086709
10.000008567
10.0000085258
10.0000083718
10.000008451
10.0000000143
10.0000001952
10.0000003657
10.0000005293
10.0000006915
10.0000008502
10.0000010038
10.0000011519
10.0000012954
10.0000014356
10.0000015737
10.0000017113
10.0000018475
10.0000019842
10.0000021189
10.0000022559
10.0000023882
10.0000025263
10.0000026532
10.0000027946
10.0000029096
10.0000030605
10.0000031508
10.0000033261
10.0000033656
10.0000035981
10.0000035355
10.0000038912
10.0000036306
10.0000042307
10.0000036081
10.0000046515
10.0000034179
10.0000051836
10.0000030278
10.000005815
10.0000024715
10.0000064388
10.0000019003
10.0000068236
10.0000015704
10.0000066913
10.0000016939
10.0000059274
10.0000022032
10.0000047625
10.0000027068
10.0000036418
10.0000028049
10.0000028095
10.0000024414
10.000002147
10.0000018147
10.0000014514
10.0000010672
10.0000006613
10.0000002373
9.99999980564
9.99999937266
9.99999895064
9.99999855456
9.99999820423
9.99999791351
9.99999769289
9.99999754372
9.99999746686
9.99999745778
9.99999751221
9.99999761976
9.99999777126
9.99999795245
9.99999815412
9.99999837056
9.99999859871
9.99999883767
9.99999908682
9.99999934616
9.99999961468
9.99999989196
10.0000001767
10.0000004685
10.000000766
10.0000010687
10.000001375
10.0000016843
10.0000019947
10.000002306
10.0000026164
10.0000029256
10.000003234
10.0000035403
10.0000038485
10.0000041578
10.0000044665
10.0000047731
10.0000050757
10.0000053724
10.0000056612
10.00000594
10.0000062067
10.0000064596
10.0000066967
10.0000069166
10.0000071177
10.0000072989
10.0000074593
10.0000075983
10.0000077153
10.0000078105
10.0000078839
10.0000079361
10.0000079679
10.0000079803
10.0000079745
10.0000079522
10.0000079147
10.0000078645
10.000007803
10.0000077328
10.0000076558
10.0000075733
10.000007491
10.0000074009
10.0000073268
10.0000072244
10.0000071875
10.0000070452
10.0000071297
10.0000000159
10.0000002008
10.0000003763
10.000000543
10.000000708
10.0000008694
10.0000010252
10.0000011748
10.0000013187
10.0000014583
10.0000015944
10.0000017296
10.000001862
10.0000019953
10.000002125
10.0000022588
10.0000023845
10.0000025212
10.0000026391
10.0000027835
10.0000028842
10.0000030481
10.0000031116
10.0000033216
10.0000033057
10.0000036193
10.0000034374
10.000003973
10.0000034542
10.0000044409
10.00000327
10.0000051166
10.0000027613
10.0000061206
10.000001794
10.0000075472
10.000000313
10.0000093364
9.99999850437
10.0000111
9.99999694259
10.0000120662
9.99999647222
10.000011426
9.99999762556
10.0000090922
9.99999989983
10.0000061108
10.0000019019
10.0000038489
10.0000026333
10.0000026711
10.0000023086
10.0000019555
10.0000015945
10.0000011864
10.0000007564
10.000000308
9.99999984394
9.99999938087
9.99999894726
9.99999856917
9.99999824788
9.99999797012
9.99999773304
9.99999755653
9.99999747156
9.99999749632
9.99999762795
9.99999784081
9.99999810227
9.99999838529
9.99999867279
9.999998957
9.99999923706
9.99999951511
9.9999997939
10.0000000757
10.0000003617
10.0000006528
10.000000949
10.0000012498
10.000001554
10.0000018603
10.0000021671
10.0000024728
10.000002776
10.0000030756
10.0000033698
10.0000036586
10.0000039399
10.0000042148
10.0000044814
10.0000047441
10.0000050014
10.0000052519
10.0000054939
10.0000057259
10.0000059461
10.0000061531
10.0000063452
10.0000065212
10.0000066797
10.0000068197
10.0000069405
10.0000070415
10.0000071223
10.0000071829
10.0000072236
10.0000072449
10.0000072476
10.0000072326
10.0000072015
10.0000071552
10.0000070962
10.0000070255
10.0000069462
10.000006859
10.0000067679
10.0000066731
10.0000065784
10.0000064858
10.0000063929
10.0000063151
10.0000062208
10.0000061829
10.000006065
10.0000061372
10.0000000151
10.0000002029
10.000000381
10.0000005517
10.0000007208
10.0000008861
10.0000010453
10.0000011978
10.0000013435
10.0000014842
10.0000016202
10.0000017548
10.0000018854
10.0000020174
10.0000021438
10.0000022766
10.0000023978
10.0000025353
10.0000026464
10.0000027958
10.0000028851
10.0000030627
10.0000031045
10.0000033462
10.0000032853
10.0000036694
10.0000033885
10.0000040806
10.0000033381
10.0000046754
10.0000029942
10.0000056275
10.0000021204
10.0000072152
10.0000003741
10.0000097989
9.99999738679
10.0000136555
9.99999304296
10.000018573
9.99998799064
10.0000233007
9.99998407566
10.0000254726
9.99998382847
10.0000229059
9.99998840193
10.000016034
9.99999553174
10.0000085702
10.0000009381
10.000004086
10.0000026577
10.000002521
10.0000022008
10.0000017408
10.0000013181
10.0000008249
10.0000002665
9.99999975337
9.99999935616
9.99999896467
9.99999830431
9.99999719087
9.99999573478
9.99999432466
9.99999338466
9.99999315326
9.99999360906
9.99999453631
9.99999566758
9.9999967833
9.99999775759
9.99999855046
9.99999917791
9.99999967795
10.0000000912
10.0000004497
10.0000007774
10.00000109
10.0000013992
10.0000017108
10.0000020278
10.0000023486
10.0000026698
10.0000029863
10.0000032941
10.0000035898
10.0000038719
10.0000041401
10.0000043947
10.0000046367
10.000004867
10.000005086
10.0000052956
10.0000054977
10.000005691
10.0000058738
10.0000060445
10.0000062013
10.0000063431
10.0000064684
10.0000065763
10.0000066661
10.0000067372
10.0000067894
10.0000068227
10.0000068374
10.0000068341
10.0000068134
10.0000067765
10.0000067245
10.0000066592
10.0000065817
10.0000064949
10.0000063992
10.0000062989
10.0000061933
10.0000060885
10.0000059818
10.0000058813
10.0000057826
10.0000056927
10.0000056125
10.0000055322
10.0000054908
10.0000054043
10.0000054566
10.0000000165
10.0000002081
10.0000003907
10.0000005642
10.0000007357
10.0000009038
10.0000010658
10.0000012211
10.0000013691
10.0000015117
10.0000016486
10.0000017837
10.0000019135
10.0000020454
10.00000217
10.0000023027
10.0000024215
10.0000025596
10.0000026677
10.0000028193
10.0000029052
10.0000030872
10.0000031252
10.0000033743
10.0000033087
10.0000037053
10.0000034152
10.0000041336
10.0000033605
10.0000047729
10.0000029732
10.0000058543
10.0000019219
10.0000078139
9.99999961725
10.0000113869
9.99999515359
10.0000175822
9.99998748943
10.0000272449
9.99997623169
10.0000398699
9.99996320115
10.0000519028
9.99995377017
10.0000565323
9.99995506211
10.0000480784
9.99996923013
10.0000294217
9.99998816199
10.0000120156
10.0000002632
10.0000039326
10.0000029007
10.0000023286
10.0000020661
10.000001258
10.0000006417
10.0000006993
10.000000667
9.999998198
9.99999088454
9.99997848179
9.99996369758
9.99995086261
9.99994357479
9.99994320662
9.99994880055
9.99995801871
9.99996832078
9.99997778799
9.99998542298
9.99999101877
9.99999484513
9.99999734799
9.99999895701
10.0000000018
10.0000007011
10.000001187
10.0000015375
10.0000018045
10.0000020289
10.0000022457
10.0000024811
10.0000027506
10.0000030566
10.000003392
10.0000037428
10.0000040938
10.0000044311
10.0000047446
10.0000050286
10.0000052809
10.0000055028
10.000005696
10.0000058676
10.0000060197
10.0000061539
10.0000062713
10.0000063723
10.000006457
10.0000065251
10.0000065764
10.0000066106
10.0000066275
10.0000066271
10.0000066096
10.0000065757
10.0000065261
10.0000064622
10.0000063848
10.0000062965
10.0000061978
10.0000060925
10.0000059802
10.0000058669
10.0000057495
10.0000056377
10.000005524
10.0000054231
10.0000053212
10.0000052384
10.0000051569
10.0000050937
10.0000050474
10.0000049942
10.000005024
10.000000016
10.0000002103
10.0000003955
10.0000005724
10.0000007475
10.0000009191
10.0000010847
10.0000012436
10.0000013949
10.0000015403
10.0000016795
10.0000018162
10.000001947
10.0000020796
10.0000022047
10.0000023375
10.000002457
10.0000025944
10.0000027053
10.0000028541
10.0000029479
10.0000031209
10.0000031789
10.0000034032
10.0000033851
10.0000037191
10.0000035366
10.0000041093
10.0000035675
10.0000046667
10.0000033314
10.0000056009
10.0000025075
10.0000073711
10.0000004189
10.0000109244
9.99999574122
10.0000180148
9.99998621463
10.0000313246
9.99996890108
10.0000535411
9.99994215055
10.0000840569
9.99991023044
10.0001136442
9.99988775321
10.0001235187
9.99989409602
10.0000992822
9.99993249122
10.0000524885
9.99997773594
10.0000148671
10.0000011259
10.000003152
10.0000026869
10.00000072
10.0000033763
10.0000064318
9.99999532701
9.99995022476
9.99986104869
9.99973914374
9.99961474429
9.99952204892
9.99948300359
9.99950092481
9.99956315926
9.99964939373
9.99973970436
9.99981987466
9.99988297767
9.99992812181
9.9999579997
9.9999765838
9.99998764849
9.99999412805
9.9999980255
10.0000005554
10.0000023576
10.0000037016
10.0000046651
10.0000052611
10.0000055152
10.0000054891
10.0000052753
10.0000049742
10.0000046747
10.0000044397
10.0000043046
10.0000042783
10.0000043519
10.0000045051
10.000004714
10.0000049544
10.0000052053
10.0000054533
10.0000056862
10.0000058952
10.0000060754
10.0000062239
10.0000063402
10.0000064246
10.0000064786
10.0000065039
10.0000065029
10.0000064777
10.0000064312
10.0000063653
10.0000062834
10.0000061869
10.0000060802
10.0000059633
10.0000058425
10.0000057153
10.0000055912
10.0000054632
10.0000053466
10.0000052263
10.0000051271
10.0000050215
10.0000049478
10.0000048626
10.0000048177
10.0000047621
10.0000047411
10.0000047433
10.0000000172
10.0000002151
10.0000004042
10.0000005837
10.0000007609
10.0000009349
10.0000011034
10.0000012656
10.0000014201
10.0000015688
10.0000017107
10.0000018495
10.0000019823
10.0000021159
10.000002243
10.0000023756
10.0000024984
10.0000026338
10.0000027513
10.0000028937
10.0000030023
10.0000031585
10.0000032494
10.0000034324
10.0000034871
10.0000037235
10.0000037021
10.00000405
10.0000038635
10.0000044562
10.0000038958
10.0000050547
10.0000036114
10.0000061352
10.0000025392
10.0000084295
9.99999952624
10.0000136807
9.99999195145
10.0000256462
9.99997461464
10.0000510578
9.99993949026
10.0000982249
9.99988004083
10.0001684997
9.99980452854
10.0002396612
9.99975096469
10.0002614381
9.99977067888
10.0001984132
9.99986636602
10.0000871428
9.99996932158
10.0000117327
9.99999999975
10.0000067905
10.0000292721
9.9999847619
9.99975629935
9.9992456051
9.99846230974
9.997551941
9.99673904324
9.99622269289
9.996097637
9.99634348296
9.9968564977
9.99750072317
9.99815094689
9.99872015899
9.99916677498
9.99948673556
9.99969879352
9.99983016113
9.99990675236
9.99994883983
9.9999705714
9.99998119075
9.99998646672
9.99998977321
9.99999282758
9.99999624365
9.99999998366
10.0000037199
10.0000070846
10.000009809
10.0000117685
10.0000129705
10.0000135127
10.000013539
10.0000132023
10.000012641
10.0000119669
10.0000112615
10.0000105796
10.0000099519
10.0000093966
10.0000089158
10.0000085046
10.0000081543
10.0000078547
10.0000075954
10.0000073673
10.0000071621
10.0000069733
10.0000067954
10.0000066253
10.0000064591
10.0000062969
10.0000061351
10.0000059776
10.0000058193
10.0000056685
10.0000055158
10.0000053768
10.0000052335
10.0000051136
10.0000049833
10.0000048898
10.0000047746
10.0000047144
10.0000046142
10.0000045907
10.0000045063
10.0000045168
10.0000044623
10.0000000169
10.0000002174
10.000000409
10.0000005915
10.0000007716
10.0000009486
10.0000011203
10.0000012861
10.0000014445
10.0000015968
10.0000017423
10.0000018839
10.0000020199
10.0000021553
10.0000022857
10.0000024189
10.0000025463
10.0000026804
10.0000028059
10.0000029433
10.0000030666
10.0000032098
10.0000033294
10.0000034819
10.0000035943
10.0000037609
10.0000038596
10.0000040493
10.0000041207
10.0000043527
10.0000043646
10.0000046896
10.000004551
10.0000051282
10.0000045441
10.0000059119
10.00000388
10.0000078646
10.0000010684
10.0000135562
9.99999177033
10.0000299844
9.99996520768
10.0000727054
9.99990072079
10.0001659745
9.99977523931
10.0003222631
9.9996006405
10.0004907949
9.99947326784
10.0005411943
9.99952230312
10.0003904701
9.99975661152
10.000107109
9.99998692099
10.0000945912
9.99997766413
9.99903929248
9.99672653304
9.99280732575
9.98773517174
9.98254931074
9.97845143059
9.97629307804
9.97631871806
9.97824553716
9.98146454417
9.98527215145
9.9890421624
9.99233992651
9.99495145167
9.99684973984
9.99812990928
9.99893982581
9.99942650972
9.99970729784
9.99986308777
9.9999445281
9.99998203589
9.99999416796
9.99999278561
9.99998564469
9.99997761118
9.99997136165
9.99996797232
9.99996746981
9.9999693118
9.9999727456
9.9999770393
9.99998159771
9.99998600072
9.99998999154
9.99999344517
9.99999632899
9.99999867012
10.0000005263
10.0000019698
10.0000030742
10.0000039052
10.0000045193
10.0000049639
10.0000052763
10.0000054871
10.0000056185
10.0000056896
10.0000057122
10.0000056997
10.0000056561
10.0000055936
10.0000055094
10.000005419
10.0000053106
10.0000052082
10.000005086
10.0000049848
10.0000048548
10.0000047663
10.0000046299
10.0000045643
10.0000044171
10.0000043831
10.0000042139
10.0000042168
10.0000040096
10.0000040495
10.0000037939
10.0000000179
10.0000002218
10.0000004167
10.0000006015
10.0000007835
10.0000009625
10.0000011367
10.0000013054
10.0000014672
10.0000016229
10.000001772
10.0000019167
10.0000020563
10.000002194
10.0000023281
10.0000024628
10.0000025948
10.0000027293
10.0000028612
10.0000029975
10.0000031307
10.0000032699
10.0000034055
10.0000035481
10.0000036873
10.0000038327
10.0000039781
10.0000041228
10.0000042803
10.0000044148
10.0000045996
10.0000046982
10.0000049501
10.0000049483
10.0000053642
10.0000051154
10.0000058889
10.0000051602
10.0000064609
10.0000054057
10.0000060953
10.0000082532
9.99999954382
10.0000241714
9.99996754956
10.0000856931
9.99986032743
10.0002598271
9.99960359732
10.000601551
9.99920560438
10.0009931442
9.99890324919
10.0011404443
9.99895771649
10.0007478375
9.99990351653
10.0001107446
9.99704705018
9.98861975175
9.973281378