/*--------------------------------*- C++ -*----------------------------------*\
  =========                 |
  \\      /  F ield         | OpenFOAM: The Open Source CFD Toolbox
   \\    /   O peration     | Website:  https://openfoam.org
    \\  /    A nd           | Version:  7
     \\/     M anipulation  |
\*---------------------------------------------------------------------------*/
FoamFile
{
    version     2.0;
    format      ascii;
    class       volScalarField;
    location    "1200";
    object      p;
}
// * * * * * * * * * * * * * * * * * * * * * * * * * * * * * * * * * * * * * //

dimensions      [0 2 -2 0 0 0 0];

internalField   nonuniform List<scalar> 
8192
(
0.000645580489772
0.000474042673043
0.000388457289892
0.000344385982314
0.000319407428951
0.000304216003528
0.000294390801738
0.00028768575024
0.000282893333695
0.000279329428917
0.000276586871778
0.000274412081869
0.000272640564699
0.00027116173725
0.000269898938738
0.000268797613313
0.000267818059072
0.00026693082282
0.000266113681261
0.000265349604345
0.000264625344604
0.000263930436132
0.000263256467775
0.000262596543509
0.000261944872439
0.000261296449455
0.00026064679917
0.000259991763801
0.000259327321604
0.000258649424779
0.000257953847838
0.000257236039882
0.000256490975222
0.000255712998004
0.000254895657104
0.000254031528924
0.000253112026627
0.000252127196471
0.000251065503783
0.00024991361472
0.000248656183542
0.000247275660744
0.000245752142809
0.000244063291415
0.000242184355407
0.000240088333943
0.000237746319386
0.000235128054581
0.00023220272619
0.000228939996497
0.000225311248463
0.000221290990666
0.000216858342147
0.000211998502703
0.000206704110119
0.000200976395562
0.000194826060266
0.000188273810296
0.000181350493813
0.000174096796033
0.0001665624569
0.000158804993286
0.000150887929352
0.000142878589554
0.000134845594174
0.000126856309083
0.000118974565166
0.000111258910662
0.000103761527814
9.65277718298e-05
8.95961486862e-05
8.29985079358e-05
7.67602626857e-05
7.09005302038e-05
6.54321703454e-05
6.03617715823e-05
5.56896752443e-05
5.14101387992e-05
4.75117137678e-05
4.39778705422e-05
4.07878493163e-05
3.79176742163e-05
3.53412405103e-05
3.30313814299e-05
3.09608333294e-05
2.91030437723e-05
2.74327940601e-05
2.59266339184e-05
2.45631437029e-05
2.33230515807e-05
2.21892367714e-05
2.11466503436e-05
2.01821808278e-05
1.92844877257e-05
1.84438200861e-05
1.7651833142e-05
1.69014112966e-05
1.61865030854e-05
1.55019707519e-05
1.48434558505e-05
1.42072606187e-05
1.35902445675e-05
1.29897348628e-05
1.24034492693e-05
1.1829429962e-05
1.12659869179e-05
1.07116493293e-05
1.01651239465e-05
9.62525907356e-06
9.09101341953e-06
8.5614288759e-06
8.03560679868e-06
7.51268733643e-06
6.99183197957e-06
6.47220972571e-06
5.95298830218e-06
5.43333284609e-06
4.91241675685e-06
4.38945267773e-06
3.86375803768e-06
3.33488071554e-06
2.80283234674e-06
2.26851968362e-06
1.73455485263e-06
1.2068286676e-06
6.9773650591e-07
2.34109922674e-07
-5.00906626754e-08
0.000496654737559
0.000433153011997
0.000383490479904
0.000350874014021
0.000328989863215
0.000313844149492
0.000303056180766
0.000295160060954
0.000289230122267
0.000284667908107
0.00028107746955
0.000278190825138
0.000275822580092
0.000273841782433
0.000272154128823
0.000270690487463
0.000269399344392
0.000268241731308
0.000267187752227
0.000266214159488
0.000265302630823
0.000264438522896
0.0002636099537
0.000262807115185
0.000262021748862
0.000261246737894
0.000260475782358
0.000259703133884
0.000258923373502
0.000258131219141
0.000257321352113
0.000256488255168
0.000255626055963
0.000254728371308
0.000253788148499
0.000252797501483
0.000251747540698
0.000250628197341
0.000249428044654
0.000248134121765
0.000246731768704
0.000245204485627
0.000243533833579
0.000241699399519
0.000239678852434
0.00023744812101
0.000234981723148
0.000232253273992
0.000229236188521
0.000225904578895
0.000222234324186
0.000218204266822
0.000213797468157
0.000209002443306
0.00020381429253
0.000198235654867
0.000192277420571
0.000185959150458
0.000179309157134
0.00017236421271
0.000165168858175
0.000157774304184
0.000150236928963
0.000142616414868
0.00013497363183
0.000127368472713
0.000119857908129
0.000112494478046
0.000105325331271
9.83917795073e-05
9.17292121432e-05
8.53671909648e-05
7.93295777472e-05
7.36346129144e-05
6.82949288596e-05
6.33175373152e-05
5.87038623046e-05
5.44498975277e-05
5.05465467195e-05
4.69801701954e-05
4.37333184794e-05
4.07856000782e-05
3.81146092774e-05
3.56968374238e-05
3.35085015559e-05
3.15262450375e-05
2.97276866377e-05
2.80918152989e-05
2.65992420858e-05
2.52323304682e-05
2.39752293353e-05
2.28138336812e-05
2.17356949491e-05
2.07298998832e-05
1.97869323219e-05
1.8898529071e-05
1.80575373595e-05
1.72577791486e-05
1.64939251792e-05
1.57613804952e-05
1.50561818009e-05
1.43749066072e-05
1.37145933844e-05
1.30726719555e-05
1.24469029795e-05
1.1835325599e-05
1.12362121135e-05
1.06480288549e-05
1.00694023202e-05
9.49908996478e-06
8.93595500975e-06
8.37894501305e-06
7.82707400564e-06
7.27940851925e-06
6.73505811538e-06
6.19317189194e-06
5.65294329327e-06
5.11362730092e-06
4.57457637029e-06
4.03530555006e-06
3.49560332861e-06
2.95571518708e-06
2.41664381611e-06
1.88064000155e-06
1.35201088713e-06
8.38507761891e-07
3.53167341986e-07
2.3052287264e-09
0.000413675877984
0.000391025318693
0.000365060128327
0.000343855154639
0.0003277683716
0.000315488305861
0.000305994135858
0.000298557511858
0.000292656092503
0.0002879105938
0.000284042774737
0.000280846719384
0.000278168745796
0.000275893162426
0.000273932095975
0.000272218187649
0.00027069931986
0.000269334784223
0.00026809247576
0.000266946820896
0.000265877232884
0.000264866948713
0.000263902143678
0.000262971249364
0.000262064421424
0.000261173118398
0.000260289761896
0.000259407456992
0.000258519758388
0.000257620469023
0.000256703460789
0.000255762510484
0.000254791145098
0.000253782491987
0.000252729130464
0.00025162294269
0.000250454962727
0.000249215224352
0.000247892609666
0.000246474703155
0.000244947658179
0.00024329608671
0.00024150298649
0.000239549724541
0.000237416099333
0.000235080507595
0.00023252024179
0.000229711942102
0.000226632217782
0.000223258439368
0.000219569682665
0.000215547784035
0.000211178445398
0.000206452316276
0.000201365978196
0.000195922767231
0.00019013338203
0.000184016235886
0.000177597515402
0.000170910916336
0.000163997036784
0.000156902420385
0.00014967824708
0.000142378689762
0.000135059012556
0.000127773597252
0.000120574169519
0.000113508441707
0.00010661927987
9.99443538384e-05
9.35161018177e-05
8.73618317522e-05
8.15038272537e-05
7.595939249e-05
7.07408290054e-05
6.5855387078e-05
6.13052618388e-05
5.70877097076e-05
5.31953392495e-05
4.961659627e-05
4.63364224805e-05
4.3337036246e-05
4.05987653192e-05
3.81008613516e-05
3.58222370921e-05
3.37420875818e-05
3.18403765476e-05
3.00981877096e-05
2.84979524383e-05
2.70235730147e-05
2.56604626825e-05
2.43955238064e-05
2.32170824943e-05
2.21147954294e-05
2.10795408025e-05
2.01033026753e-05
1.91790550175e-05
1.83006499986e-05
1.74627130612e-05
1.66605464924e-05
1.58900419596e-05
1.5147602245e-05
1.44300716727e-05
1.37346748205e-05
1.30589626601e-05
1.24007655281e-05
1.17581520454e-05
1.11293934267e-05
1.0512932429e-05
9.9073565458e-06
9.31137492231e-06
8.72379886681e-06
8.14352577734e-06
7.56952678611e-06
7.00083851209e-06
6.43655997993e-06
5.87585613957e-06
5.31797048626e-06
4.76225024182e-06
4.20818945849e-06
3.65549761041e-06
3.10420504145e-06
2.55482193055e-06
2.00857573905e-06
1.46776076895e-06
9.36162531229e-07
4.18760855963e-07
1.67839596518e-08
0.000369083155821
0.000360718400976
0.000346553561163
0.000332789681566
0.000321388267896
0.000312137266174
0.000304583301761
0.000298357840205
0.00029318263816
0.000288845110734
0.000285179505864
0.000282054764894
0.000279366429226
0.000277030854502
0.000274980839802
0.000273162222642
0.00027153119076
0.000270052150561
0.000268696035452
0.000267438962869
0.000266261167011
0.000265146148721
0.000264079995723
0.00026305083611
0.000262048395746
0.000261063637017
0.000260088458595
0.000259115443121
0.000258137643325
0.000257148395609
0.000256141153041
0.000255109332665
0.000254046172261
0.000252944592838
0.00025179706391
0.00025059546961
0.000249330974583
0.000247993889839
0.000246573540082
0.000245058135981
0.000243434657009
0.000241688753559
0.000239804680346
0.000237765277289
0.000235552017969
0.000233145149562
0.00023052394973
0.000227667124811
0.000224553366784
0.000221162073778
0.000217474218998
0.000213473329942
0.000209146517585
0.000204485482579
0.000199487425708
0.000194155803168
0.00018850088323
0.000182540071057
0.000176297969474
0.000169806147239
0.000163102598058
0.000156230884348
0.000149238952284
0.00014217760324
0.000135098661032
0.000128053021156
0.000121088905059
0.000114250572381
0.00010757761038
0.000101104734169
9.48618778127e-05
8.88743716258e-05
8.31630740656e-05
7.7744403178e-05
7.26302724685e-05
6.78279844906e-05
6.33401643009e-05
5.91648173309e-05
5.52955711418e-05
5.17221205004e-05
4.84308516797e-05
4.54055887673e-05
4.26283876016e-05
4.00803049122e-05
3.7742085113e-05
3.55947295166e-05
3.36199340503e-05
3.18003991163e-05
3.01200259642e-05
2.85640196911e-05
2.71189198062e-05
2.5772578068e-05
2.45141001378e-05
2.33337645595e-05
2.22229291592e-05
2.11739324429e-05
2.01799950926e-05
1.9235125122e-05
1.83340287281e-05
1.74720281057e-05
1.66449866353e-05
1.58492415618e-05
1.5081543825e-05
1.43390046693e-05
1.3619048423e-05
1.29193709316e-05
1.22379030076e-05
1.15727784108e-05
1.09223058103e-05
1.02849443624e-05
9.65928250863e-06
9.04401980731e-06
8.43795162313e-06
7.83995674285e-06
7.24898806144e-06
6.66406680395e-06
6.08428094332e-06
5.50878896273e-06
4.93683057321e-06
4.36774691368e-06
3.80101396046e-06
3.23629500672e-06
2.67352083004e-06
2.11300760625e-06
1.55560364118e-06
1.00271345149e-06
4.55365530529e-07
1.92634983542e-08
0.000341423635967
0.000339484659724
0.000331714315018
0.000322547877162
0.000314289916241
0.000307277445026
0.000301353290947
0.000296312063534
0.000291985419688
0.000288243710482
0.000284985705441
0.000282130187162
0.000279610547333
0.000277371403449
0.000275366361217
0.000273556404876
0.000271908648362
0.000270395316943
0.000268992895031
0.000267681405629
0.000266443799483
0.000265265437463
0.000264133652261
0.000263037377149
0.000261966830865
0.000260913250121
0.000259868657097
0.00025882565833
0.000257777270246
0.000256716763073
0.000255637518266
0.000254532896408
0.000253396112124
0.000252220113252
0.000250997461975
0.000249720216294
0.000248379810808
0.000246966936696
0.000245471421826
0.000243882113461
0.00024218676791
0.000240371954214
0.000238422982104
0.000236323868734
0.000234057363079
0.000231605051602
0.000228947571937
0.000226064961956
0.000222937166382
0.000219544711052
0.00021586953394
0.000211895935829
0.000207611587282
0.000203008513253
0.00019808397853
0.000192841216616
0.000187289967122
0.00018144679754
0.00017533517971
0.000168985289669
0.000162433516099
0.000155721678212
0.00014889592875
0.000142005280772
0.000135099743424
0.000128228261555
0.000121436879163
0.00011476745884
0.000108257099009
0.000101938134553
9.58384098913e-05
8.99815729433e-05
8.43872556101e-05
7.90710985762e-05
7.4044638543e-05
6.93151273149e-05
6.48853851726e-05
6.07537912155e-05
5.69144808358e-05
5.33577710174e-05
5.00707829843e-05
4.70381939642e-05
4.42430327838e-05
4.16674394141e-05
3.92933289228e-05
3.71029270511e-05
3.50791687365e-05
3.32059687444e-05
3.14683833971e-05
2.98526862446e-05
2.83463797864e-05
2.693816265e-05
2.56178677679e-05
2.43763835383e-05
2.32055665875e-05
2.20981522452e-05
2.10476667076e-05
2.00483434701e-05
1.90950454382e-05
1.81831934706e-05
1.73087015167e-05
1.64679182655e-05
1.56575749421e-05
1.48747388499e-05
1.41167721259e-05
1.33812952392e-05
1.26661546985e-05
1.19693945398e-05
1.12892311356e-05
1.06240309829e-05
9.97229111681e-06
9.3326219223e-06
8.70373211717e-06
8.08441582087e-06
7.47354165344e-06
6.87004398934e-06
6.27291659742e-06
5.68120920611e-06
5.09402786472e-06
4.5105406493e-06
3.92999113347e-06
3.35172319389e-06
2.77522060857e-06
2.20015753862e-06
1.62641628672e-06
1.05387300385e-06
4.81339686602e-07
1.98570848434e-08
0.000323039351637
0.00032397126088
0.00031996120229
0.000313853576459
0.000307781081067
0.000302365851329
0.000297658547448
0.00029356432838
0.000289976633829
0.00028680700442
0.000283986092601
0.000281459100417
0.000279181576145
0.000277116511602
0.000275232489492
0.00027350249925
0.000271903141133
0.000270414048847
0.000269017437183
0.000267697725986
0.00026644121585
0.000265235803039
0.000264070726768
0.000262936344461
0.000261823931505
0.000260725504504
0.00025963365796
0.000258541418699
0.000257442116198
0.000256329261758
0.00025519643501
0.000254037176175
0.000252844881902
0.000251612702796
0.000250333440958
0.00024899944621
0.000247602510009
0.000246133756692
0.00024458353239
0.000242941293239
0.000241195496043
0.000239333497083
0.00023734146785
0.000235204340939
0.000232905804399
0.000230428368802
0.000227753536332
0.000224862104007
0.000221734630047
0.00021835208078
0.00021469665257
0.00021075273171
0.00020650792217
0.000201954050754
0.000197088062985
0.000191912751816
0.000186437295136
0.000180677590149
0.000174656355747
0.000168402962035
0.000161952973909
0.000155347428174
0.000148631815295
0.000141854635091
0.000135065420982
0.000128312435489
0.000121640614969
0.000115090239566
0.000108696505933
0.000102489798012
9.64962013507e-05
9.07379440901e-05
8.523363616e-05
7.99982848519e-05
7.50431191781e-05
7.03753126411e-05
6.59977362981e-05
6.1908871606e-05
5.81029684967e-05
5.45704707526e-05
5.12986680414e-05
4.82724892476e-05
4.54753344048e-05
4.28898532136e-05
4.04986063752e-05
3.82845795644e-05
3.62315479428e-05
3.43243078041e-05
3.25488005671e-05
3.08921560773e-05
2.93426793525e-05
2.78898005677e-05
2.65240031702e-05
2.52367409207e-05
2.4020351124e-05
2.2867968864e-05
2.1773445096e-05
2.07312702729e-05
1.9736504223e-05
1.87847125332e-05
1.78719092543e-05
1.69945056274e-05
1.61492643383e-05
1.53332588374e-05
1.45438371806e-05
1.37785899296e-05
1.3035321616e-05
1.23120253673e-05
1.16068602777e-05
1.09181311981e-05
1.02442706089e-05
9.5838223286e-06
8.93542680401e-06
8.29780782254e-06
7.66976050014e-06
7.05014052425e-06
6.43785471212e-06
5.83185317404e-06
5.23112361134e-06
4.63468868188e-06
4.0416076176e-06
3.45098283635e-06
2.86196859953e-06
2.27376443717e-06
1.68552977107e-06
1.09603572509e-06
5.02682267063e-07
2.08920106532e-08
0.000310130478908
0.000312297794762
0.000310535963805
0.00030654573129
0.00030207923753
0.00029785434893
0.000294061062111
0.000290694223871
0.000287696807891
0.000285008640226
0.000282578888602
0.000280366881223
0.000278340061792
0.000276471824037
0.000274739867934
0.000273125079014
0.000271610789311
0.000270182285081
0.000268826464828
0.000267531586383
0.000266287066666
0.000265083313588
0.000263911578747
0.00026276382483
0.000261632604141
0.000260510948945
0.000259392263004
0.000258270221824
0.000257138682765
0.000255991596133
0.000254822919062
0.000253626531084
0.000252396150074
0.000251125247274
0.000249806960137
0.000248434001833
0.000246998566408
0.000245492228913
0.00024390584033
0.000242229418012
0.000240452033729
0.000238561703585
0.000236545287255
0.000234388408548
0.000232075415308
0.000229589403944
0.000226912341448
0.000224025323272
0.000220909005232
0.000217544236724
0.000213912897148
0.000209998898274
0.000205789271773
0.00020127523233
0.000196453112241
0.000191325106717
0.000185899822058
0.00018019263463
0.00017422583074
0.000168028464715
0.000161635920877
0.000155089241106
0.000148434202657
0.00014171991032
0.000134996638845
0.000128313121232
0.000121714109314
0.000115238935141
0.00010892130162
0.000102789930252
9.68693894631e-05
9.11807062978e-05
8.57416650512e-05
8.05668050296e-05
7.56671608435e-05
7.10498584785e-05
6.67177405722e-05
6.26691877882e-05
5.8898241474e-05
5.5395050158e-05
5.21465839832e-05
4.9137506792e-05
4.63510781997e-05
4.37699765322e-05
4.13769732742e-05
3.91554326431e-05
3.7089643278e-05
3.51650084275e-05
3.33681279979e-05
3.16868046046e-05
3.01100004556e-05
2.86277654337e-05
2.72311507659e-05
2.5912117835e-05
2.46634481024e-05
2.34786576018e-05
2.23519177992e-05
2.12779835436e-05
2.02521281894e-05
1.92700855913e-05
1.83279984811e-05
1.74223726416e-05
1.65500362754e-05
1.57081039798e-05
1.48939447755e-05
1.41051536816e-05
1.33395263754e-05
1.25950365229e-05
1.18698154063e-05
1.11621335142e-05
1.04703837948e-05
9.7930663041e-06
9.12877401163e-06
8.47617956175e-06
7.8340228301e-06
7.20109917257e-06
6.57624834134e-06
5.95834414363e-06
5.34628500667e-06
4.73898557946e-06
4.13536897216e-06
3.53435719752e-06
2.93485114392e-06
2.3356744832e-06
1.73541535692e-06
1.13202468592e-06
5.21978055745e-07
2.35201584036e-08
0.000300655108608
0.000303293103532
0.000302883776827
0.000300377886265
0.000297127580964
0.000293829323369
0.000290749513751
0.000287951127105
0.00028542031625
0.000283121858779
0.000281019621884
0.000279082499101
0.000277285060665
0.00027560663769
0.000274030186546
0.000272541339113
0.000271127703606
0.000269778375914
0.000268483602757
0.000267234546424
0.000266023114575
0.000264841830739
0.000263683729919
0.000262542269813
0.000261411252116
0.000260284751468
0.000259157043627
0.000258022536597
0.000256875709761
0.000255711049569
0.000254522985267
0.000253305823656
0.000252053681898
0.000250760417368
0.00024941955344
0.000248024200071
0.000246566968035
0.000245039875762
0.000243434247992
0.000241740606093
0.000239948550911
0.000238046641026
0.000236022272268
0.000233861569258
0.000231549306452
0.000229068885306
0.000226402404431
0.000223530869081
0.000220434589777
0.000217093811024
0.00021348958259
0.00020960483681
0.000205425576096
0.000200942032353
0.000196149665824
0.000191049936376
0.000185650865241
0.000179967429923
0.000174021760051
0.000167843025241
0.00016146698886
0.000154935374914
0.000148295091554
0.000141596914739
0.000134893087187
0.000128233977259
0.000121665016142
0.000115225082475
0.000108946630134
0.000102856877218
9.69790391828e-05
9.13331219156e-05
8.59362701592e-05
8.08027362442e-05
7.59435087024e-05
7.13657399851e-05
6.70722067983e-05
6.30610212494e-05
5.93257218986e-05
5.58557659084e-05
5.26373441602e-05
4.96543740773e-05
4.68895077628e-05
4.43250238357e-05
4.19435272615e-05
3.97284373733e-05
3.76642837258e-05
3.57368492875e-05
3.39332044261e-05
3.22416701864e-05
3.06517405856e-05
2.91539849448e-05
2.77399438467e-05
2.64020269564e-05
2.51334171303e-05
2.39279829305e-05
2.27802001398e-05
2.16850821229e-05
2.06381183927e-05
1.96352206166e-05
1.86726751897e-05
1.77471015842e-05
1.68554156933e-05
1.59947975105e-05
1.51626625199e-05
1.43566362855e-05
1.35745317556e-05
1.28143288896e-05
1.20741562321e-05
1.13522741276e-05
1.06470592754e-05
9.95699038248e-06
9.28063466751e-06
8.61663502186e-06
7.9636976316e-06
7.32057991096e-06
6.6860785889e-06
6.05901778585e-06
5.43823675653e-06
4.8225765389e-06
4.21086349429e-06
3.60188464154e-06
2.99434236896e-06
2.38676018728e-06
1.7772811338e-06
1.16326211642e-06
5.40579711731e-07
2.84015162319e-08
0.000293449150484
0.000296202077885
0.000296605334017
0.000295143867853
0.000292825247101
0.000290267403926
0.000287764607025
0.000285425196119
0.00028327060827
0.000281288291588
0.000279455800345
0.000277750381814
0.000276152080971
0.000274644235351
0.00027321307099
0.000271847096098
0.000270536543142
0.00026927292613
0.000268048711233
0.0002668570783
0.000265691748831
0.00026454686001
0.000263416869544
0.000262296480576
0.000261180580801
0.000260064187736
0.0002589423969
0.000257810331167
0.000256663097052
0.000255495736942
0.000254303180013
0.000253080190871
0.000251821314943
0.000250520819602
0.000249172629889
0.000247770257555
0.000246306722025
0.00024477446179
0.000243165234769
0.000241470006494
0.000239678825717
0.000237780688614
0.000235763395729
0.000233613410631
0.000231315737023
0.00022885384186
0.000226209665913
0.000223363777389
0.000220295733431
0.000216984708833
0.00021341042048
0.000209554314011
0.000205400897532
0.000200939041975
0.000196163070755
0.00019107355911
0.000185677902949
0.000179990762703
0.000174034349214
0.000167838349504
0.000161439423151
0.000154880579727
0.000148210642254
0.000141483155471
0.000134753697168
0.000128075582517
0.000121495806746
0.00011505317051
0.000108778960334
0.000102698930903
9.68350512548e-05
9.12064594662e-05
8.58298378059e-05
8.07193454781e-05
7.58861023171e-05
7.13373913557e-05
6.70759051897e-05
6.30993235675e-05
5.94003782291e-05
5.59674215091e-05
5.27853895503e-05
4.98369660936e-05
4.7103737215e-05
4.45671764144e-05
4.22093787056e-05
4.00135349477e-05
3.79641841879e-05
3.60473005907e-05
3.42502709567e-05
3.25618084517e-05
3.09718353289e-05
2.94713558579e-05
2.80523319467e-05
2.67075679076e-05
2.54306070991e-05
2.42156409587e-05
2.30574298281e-05
2.19512344146e-05
2.08927565968e-05
1.98780882688e-05
1.89036670541e-05
1.79662378308e-05
1.70628191793e-05
1.61906739697e-05
1.5347283447e-05
1.45303242482e-05
1.37376478891e-05
1.29672623045e-05
1.22173151032e-05
1.14860782176e-05
1.07719336879e-05
1.00733603212e-05
9.38892101074e-06
8.71725048556e-06
8.05704328701e-06
7.40704172462e-06
6.76602352203e-06
6.13278868963e-06
5.50614481895e-06
4.88488918317e-06
4.2677843309e-06
3.65352025662e-06
3.04064906423e-06
2.42746486242e-06
1.81178197466e-06
1.19054979018e-06
5.59275999023e-07
3.596539538e-08
0.000287816621014
0.000290522565563
0.000291409493081
0.000290683094454
0.000289080086849
0.000287120859751
0.000285095578572
0.000283137782525
0.000281295054612
0.000279574258148
0.000277965709859
0.000276454682183
0.000275026298449
0.00027366727918
0.000272366307795
0.000271113859521
0.000269901871384
0.000268723408371
0.000267572379313
0.000266443312634
0.000265331185616
0.000264231296129
0.000263139165911
0.000262050466208
0.000260960961698
0.000259866459786
0.000258762766356
0.000257645644862
0.000256510780689
0.000255353742865
0.000254169944223
0.000252954598914
0.000251702676155
0.000250408849054
0.000249067437182
0.000247672341417
0.000246216969283
0.000244694148801
0.000243096028631
0.000241413962271
0.000239638374441
0.000237758608972
0.000235762760053
0.000233637493666
0.000231367874309
0.000228937225124
0.000226327067234
0.000223517204738
0.000220486038775
0.000217211195133
0.00021367051787
0.000209843404041
0.000205712340679
0.000201264403565
0.000196492469378
0.000191396036266
0.000185981778705
0.000180264056814
0.000174265357772
0.000168016286609
0.000161554912466
0.000154926078224
0.000148181264344
0.000141377989598
0.00013457683531
0.000127835695559
0.00012120412223
0.000114721091718
0.000108416623268
0.000102314939021
9.64368410901e-05
9.08007402612e-05
8.54230201462e-05
8.03179471326e-05
7.54969712204e-05
7.09676247448e-05
6.67324914902e-05
6.27886243219e-05
5.91275930264e-05
5.57361700158e-05
5.25975025405e-05
4.96925099932e-05
4.70012322521e-05
4.45039324135e-05
4.21818693522e-05
4.00177500082e-05
3.79959246115e-05
3.61024037305e-05
3.43247680246e-05
3.26520241897e-05
3.10744424502e-05
2.95833964452e-05
2.81712161037e-05
2.68310577711e-05
2.55567921676e-05
2.43429089788e-05
2.31844360791e-05
2.20768712648e-05
2.10161244524e-05
1.99984685781e-05
1.90204976685e-05
1.80790908357e-05
1.71713811495e-05
1.6294728545e-05
1.5446696059e-05
1.46250288283e-05
1.38276353634e-05
1.30525707039e-05
1.22980211065e-05
1.15622899774e-05
1.08437847791e-05
1.01410046796e-05
9.45252870709e-06
8.77700418562e-06
8.11313518553e-06
7.45967067121e-06
6.815391884e-06
6.17909823536e-06
5.54959045282e-06
4.92564870363e-06
4.30600146801e-06
3.68927731416e-06
3.07392535552e-06
2.45808022375e-06
1.83933582987e-06
1.2143901992e-06
5.78557880556e-07
4.64908364228e-08
0.000283322749473
0.000285911928398
0.000287080060852
0.000286870203296
0.00028581622009
0.000284342588968
0.000282717205958
0.000281083217098
0.00027950546751
0.000278006207562
0.000276587039463
0.000275240847751
0.000273957725885
0.000272727653197
0.00027154153275
0.000270391456774
0.000269270640959
0.000268173241215
0.000267094149882
0.000266028810737
0.00026497306496
0.00026392302822
0.000262874994454
0.000261825360485
0.000260770570158
0.000259707064214
0.000258631235662
0.000257539394209
0.000256427733148
0.00025529229558
0.000254128939399
0.000252933299757
0.000251700747709
0.000250426343669
0.000249104784151
0.000247730339998
0.000246296783975
0.000244797305118
0.000243224406841
0.000241569785333
0.000239824184749
0.000237977226275
0.000236017210226
0.000233930894938
0.00023170326507
0.000229317316765
0.000226753909405
0.000223991762205
0.000221007701963
0.000217777280113
0.000214275847781
0.000210480082533
0.000206369802116
0.000201929740351
0.000197150924701
0.000192031499081
0.000186577218193
0.000180802042375
0.000174728860808
0.00016838962356
0.000161824366987
0.000155080260286
0.000148212132383
0.000141282867095
0.000134360249515
0.000127508967613
0.000120782341236
0.000114219621341
0.000107849237041
0.000101693714347
9.57727903379e-05
9.01042848812e-05
8.47044099014e-05
7.95877260683e-05
7.47662172011e-05
7.02477720879e-05
6.60347974729e-05
6.21234496664e-05
5.85036812634e-05
5.51600981433e-05
5.20734206497e-05
4.92221936291e-05
4.65843835127e-05
4.41386217351e-05
4.18650129707e-05
3.9745548243e-05
3.77642219069e-05
3.59069597058e-05
3.41614461842e-05
3.2516912787e-05
3.09639237666e-05
2.94941791567e-05
2.81003426697e-05
2.67758958185e-05
2.55150163448e-05
2.43124777046e-05
2.31635661533e-05
2.20640122034e-05
2.10099337086e-05
1.9997788283e-05
1.90243332303e-05
1.80865915082e-05
1.71818225747e-05
1.63074971839e-05
1.54612754052e-05
1.46409872623e-05
1.38446155223e-05
1.30702802268e-05
1.23162246427e-05
1.15808023374e-05
1.08624651327e-05
1.01597516942e-05
9.471276529e-06
8.79571913099e-06
8.13181297716e-06
7.47833395876e-06
6.8340876504e-06
6.19789445292e-06
5.56857101687e-06
4.94490520431e-06
4.32561986451e-06
3.70931732772e-06
3.0943912611e-06
2.47888547706e-06
1.86027325028e-06
1.23513431966e-06
5.98734266425e-07
6.01385138457e-08
0.000279684444634
0.000282130562893
0.00028345385432
0.00028360562265
0.000282971733611
0.000281891673744
0.00028060268124
0.000279246679611
0.000277898162161
0.000276590583976
0.000275334910987
0.000274130915822
0.00027297346317
0.000271855759045
0.000270770896525
0.000269712498648
0.000268674909131
0.000267653173313
0.000266642934459
0.000265640306884
0.000264641753751
0.000263643980291
0.000262643844888
0.000261638286659
0.000260624269899
0.000259598735187
0.000258558552296
0.00025750048739
0.000256421170124
0.000255317061584
0.000254184421381
0.000253019272492
0.000251817362384
0.000250574118889
0.000249284599054
0.000247943428899
0.000246544731496
0.000245082040213
0.000243548193153
0.000241935204073
0.000240234104377
0.000238434750707
0.000236525593873
0.000234493408942
0.000232322995022
0.000229996869946
0.000227495012012
0.000224794739181
0.000221870859275
0.000218696254031
0.000215243039558
0.000211484333521
0.000207396441001
0.000202961019011
0.00019816668321
0.000193009797116
0.000187494813446
0.00018163497249
0.000175453546678
0.000168984310568
0.000162269944093
0.000155360360288
0.000148314326453
0.000141201753922
0.00013410072996
0.000127085970611
0.000120216153967
0.00011353066796
0.000107055739127
0.000100811966862
9.48182320756e-05
8.90918809447e-05
8.36489723734e-05
7.85044849738e-05
7.36711059719e-05
6.91571257442e-05
6.49646027633e-05
6.10883905777e-05
5.75162077493e-05
5.42297373154e-05
5.1206482318e-05
4.84218896007e-05
4.58512591918e-05
4.34711470058e-05
4.12601944204e-05
3.91994727419e-05
3.72724908035e-05
3.54650083491e-05
3.37647626659e-05
3.21611769635e-05
3.06450875628e-05
2.92085060161e-05
2.7844419908e-05
2.65466299251e-05
2.53096181762e-05
2.4128442263e-05
2.29986499591e-05
2.1916210176e-05
2.0877456672e-05
1.98790417493e-05
1.89178977657e-05
1.79912048166e-05
1.70963632918e-05
1.62309703335e-05
1.53927994116e-05
1.45797824235e-05
1.3789993826e-05
1.30216364177e-05
1.22730284384e-05
1.15425917196e-05
1.08288406293e-05
1.01303715869e-05
9.44585290007e-06
8.77401465671e-06
8.1136383216e-06
7.46354556049e-06
6.82258556931e-06
6.18961978175e-06
5.56350212591e-06
4.94305184056e-06
4.32701395978e-06
3.71399963496e-06
3.10239431107e-06
2.49021703452e-06
1.87491147929e-06
1.25305449832e-06
6.19987502492e-07
7.69648525095e-08
0.000276709935966
0.000279006779008
0.000280405801638
0.000280808876505
0.000280495291215
0.00027973333254
0.000278727360625
0.000277611295219
0.000276463329961
0.000275324274212
0.000274212363661
0.00027313328027
0.000272086282885
0.000271067703644
0.000270072821331
0.000269096793281
0.000268135066505
0.000267183514273
0.000266238436898
0.00026529650225
0.000264354665445
0.000263410087089
0.000262460058549
0.000261501938317
0.000260533099209
0.000259550881348
0.000258552546488
0.00025753524534
0.000256495985138
0.00025543159822
0.000254338710028
0.000253213705036
0.000252052689054
0.000250851446234
0.000249605388821
0.000248309497266
0.000246958247703
0.000245545522967
0.000244064502251
0.000242507523218
0.000240865909066
0.000239129752024
0.000237287644906
0.000235326355183
0.00023323044422
0.000230981851882
0.000228559498428
0.000225939005033
0.000223092697512
0.000219990113876
0.000216599237132
0.000212888550358
0.00020882971584
0.00020440028686
0.00019958564302
0.000194379686781
0.000188784855697
0.000182812918054
0.000176487181758
0.000169843782864
0.00016292896629
0.000155795669533
0.000148506979687
0.000141141864683
0.000133793335139
0.000126551167801
0.000119481622056
0.0001126236851
0.000106000388511
9.96301533461e-05
9.35314658917e-05
8.77212078558e-05
8.22150151169e-05
7.70282330616e-05
7.21743043344e-05
6.76618070092e-05
6.34920806787e-05
5.96580493815e-05
5.61443445779e-05
5.29287356286e-05
4.99845178429e-05
4.72831778327e-05
4.47966855765e-05
4.2499064029e-05
4.03672073218e-05
3.83811095056e-05
3.65237188715e-05
3.47806031229e-05
3.31395528518e-05
3.15901966197e-05
3.01236619707e-05
2.87322929084e-05
2.74094219566e-05
2.61491895666e-05
2.49464022637e-05
2.3796421388e-05
2.26950755365e-05
2.16385911509e-05
2.06235369597e-05
1.96467789897e-05
1.87054436924e-05
1.77968873241e-05
1.69186702038e-05