/*--------------------------------*- C++ -*----------------------------------*\
  =========                 |
  \\      /  F ield         | OpenFOAM: The Open Source CFD Toolbox
   \\    /   O peration     | Website:  https://openfoam.org
    \\  /    A nd           | Version:  7
     \\/     M anipulation  |
\*---------------------------------------------------------------------------*/
FoamFile
{
    version     2.0;
    format      ascii;
    class       surfaceScalarField;
    location    "1200";
    object      phi;
}
// * * * * * * * * * * * * * * * * * * * * * * * * * * * * * * * * * * * * * //

dimensions      [0 3 -1 0 0 0 0];

internalField   nonuniform List<scalar> 
16192
(
6.92901468152e-10
2.44598531848e-10
4.93519821258e-10
1.99381639903e-10
3.64775495525e-10
1.28744318884e-10
2.82202318546e-10
8.25731702894e-11
2.27602026237e-10
5.46002854056e-11
1.90027861959e-10
3.75741572108e-11
1.63134081823e-10
2.68937729979e-11
1.43205419231e-10
1.99286554545e-11
1.28005610847e-10
1.51998012949e-11
1.16140834554e-10
1.18647692897e-11
1.06709788065e-10
9.43103959788e-12
9.91084913083e-11
7.60128999965e-12
9.29186947461e-11
6.18978995604e-12
8.78421853405e-11
5.07650297007e-12
8.36608872601e-11
4.18129183131e-12
8.02118618858e-11
3.44901933468e-12
7.73711672584e-11
2.84068881544e-12
7.50431415512e-11
2.32802015058e-12
7.3153102661e-11
1.89003360994e-12
7.16422580476e-11
1.51083964182e-12
7.04640809739e-11
1.17817243432e-12
6.95816827217e-11
8.82393982305e-13
6.89658758982e-11
6.1580294882e-13
6.85937270184e-11
3.7214544312e-13
6.84474616641e-11
1.46262383425e-13
6.85136280168e-11
-6.61688086457e-14
6.87824517114e-11
-2.68825605874e-13
6.92473335958e-11
-4.64883194436e-13
6.9904456491e-11
-6.57123572047e-13
7.07524744609e-11
-8.48017948494e-13
7.17922626425e-11
-1.03978742778e-12
7.30267101695e-11
-1.23444596604e-12
7.44605404227e-11
-1.43382784881e-12
7.61001442989e-11
-1.63960054329e-12
7.79534114775e-11
-1.85326287962e-12
8.00295444359e-11
-2.07612759782e-12
8.23388376771e-11
-2.30928678244e-12
8.48924034921e-11
-2.55355815384e-12
8.77018226259e-11
-2.80941023843e-12
9.07786975445e-11
-3.07686467957e-12
9.41340844138e-11
-3.35537526619e-12
9.77777826992e-11
-3.64368520957e-12
1.01717465091e-10
-3.93966784302e-12
1.05957641746e-10
-4.24016053375e-12
1.10498467369e-10
-4.54080796057e-12
1.15334423964e-10
-4.83593731376e-12
1.20452938906e-10
-5.11849411936e-12
1.25833031209e-10
-5.38006990219e-12
1.3144410558e-10
-5.61105054235e-12
1.37245034291e-10
-5.80090348404e-12
1.4318366502e-10
-5.9386043624e-12
1.49196872955e-10
-6.01318056544e-12
1.55211229939e-10
-6.01432902238e-12
1.61144311988e-10
-5.93305377306e-12
1.66906612159e-10
-5.76227216476e-12
1.72403991214e-10
-5.49735173997e-12
1.77540572877e-10
-5.13655577213e-12
1.82221978439e-10
-4.6813816008e-12
1.86358773496e-10
-4.13677380531e-12
1.89869979157e-10
-3.5111875768e-12
1.92686466376e-10
-2.81647296634e-12
1.94754014364e-10
-2.06753780517e-12
1.96035750018e-10
-1.28172994929e-12
1.9651363808e-10
-4.77886793542e-13
1.9618871711e-10
3.24917618749e-13
1.9507996624e-10
1.10874309692e-12
1.93222004058e-10
1.85794989653e-12
1.90662086099e-10
2.55990143938e-12
1.87456985821e-10
3.20507956345e-12
1.83670254199e-10
3.78670717678e-12
1.79370100847e-10
4.30012545446e-12
1.74627888759e-10
4.74218142323e-12
1.69517057603e-10
5.11079817955e-12
1.64112225981e-10
5.40479710322e-12
1.58488237698e-10
5.62395270279e-12
1.52719002172e-10
5.76919959462e-12
1.46876088502e-10
5.84287778258e-12
1.4102714897e-10
5.84890426064e-12
1.35234325508e-10
5.79278907002e-12
1.29552828807e-10
5.68146359653e-12
1.24029858058e-10
5.52293905867e-12
1.18703975435e-10
5.32585260328e-12
1.13604971053e-10
5.09897604325e-12
1.0875418481e-10
4.8507597212e-12
1.04165195533e-10
4.58896450132e-12
9.98447629811e-11
4.32040957513e-12
9.57939028594e-11
4.05083882613e-12
9.20089921412e-11
3.78489110397e-12
8.84828243138e-11
3.52614975424e-12
8.52055629602e-11
3.27724479369e-12
8.21655644284e-11
3.03998334024e-12
7.93500612181e-11
2.81548934713e-12
7.67457094507e-11
2.60433909415e-12
7.43390135582e-11
2.40668436752e-12
7.21166439775e-11
2.22235907786e-12
7.00656662174e-11
2.05096824136e-12
6.81736977074e-11
1.89195986349e-12
6.642900836e-11
1.74468154063e-12
6.48205774568e-11
1.60842383822e-12
6.33381183064e-11
1.48245280045e-12
6.19720789657e-11
1.36603361968e-12
6.07136264104e-11
1.25844744161e-12
5.95546190007e-11
1.15900282722e-12
5.84875716422e-11
1.06704328967e-12
5.75056161013e-11
9.8195191767e-13
5.6602458863e-11
9.03154046443e-13
5.5772337416e-11
8.30118625109e-13
5.50099759989e-11
7.62358953803e-13
5.43105405909e-11
6.99433247221e-13
5.36695931404e-11
6.40945583588e-13
5.30830438373e-11
5.86547678729e-13
5.25471003275e-11
5.35942121942e-13
5.20582114085e-11
4.8888772075e-13
5.16130024358e-11
4.45207960432e-13
5.12081977267e-11
4.04803840099e-13
5.08405239259e-11
3.6767307469e-13
5.05065847909e-11
3.33938513257e-13
5.02026939155e-11
3.03890361821e-13
4.99246440647e-11
2.78049412723e-13
4.96673804188e-11
2.57263293414e-13
4.94245243921e-11
2.4285573604e-13
4.91876615378e-11
2.36862646065e-13
4.89452519061e-11
2.42409495535e-13
4.86809465706e-11
2.64305307194e-13
4.83710532395e-11
3.09893414748e-13
4.79813137137e-11
3.89739758513e-13
4.74658946791e-11
5.15419409324e-13
6.61346812038e-13
9.53386556865e-10
2.28711968251e-10
8.59604958052e-10
2.93163225123e-10
7.45066117039e-10
2.43283146468e-10
6.41921812335e-10
1.85717461457e-10
5.5679922566e-10
1.39722858206e-10
4.88493122748e-10
1.05880246066e-10
4.33977715177e-10
8.14091664738e-11
3.9029667315e-10
6.360968345e-11
3.55033441694e-10
5.0463018857e-11
3.26329165406e-10
4.05690318774e-11
3.0278281942e-10
3.29773721196e-11
2.8334137158e-10
2.70427246479e-11
2.67208990693e-10
2.23221579587e-11
2.53778661629e-10
1.85068194943e-11
2.42582498965e-10
1.53774423372e-11
2.33256075215e-10
1.27754313489e-11
2.25512814208e-10
1.05839385529e-11
2.19125498798e-10
8.71532480799e-12
2.13912793024e-10
7.10272919363e-12
2.09729313611e-10
5.69430948583e-12
2.06458234021e-10
4.44924313027e-12
2.0400571409e-10
3.33490575795e-12
2.02296660233e-10
2.32484945009e-12
2.01271466596e-10
1.39733259544e-12
2.00883487229e-10
5.34236204663e-13
2.01097058458e-10
-2.79744562264e-13
2.01885937554e-10
-1.05770813453e-12
2.03232058011e-10
-1.81100589574e-12
2.05124527432e-10
-2.54959396876e-12
2.07558807891e-10
-3.28229800958e-12
2.10536029095e-10
-4.01700676909e-12
2.14062392512e-10
-4.76080593591e-12
2.18148628411e-10
-5.52005861833e-12
2.22809470006e-10
-6.30043519178e-12
2.28063108243e-10
-7.10689224599e-12
2.33930589823e-10
-7.94359823855e-12
2.40435117894e-10
-8.81380173452e-12
2.47601212661e-10
-9.71963746912e-12
2.55453686007e-10
-1.06618656938e-11
2.64016384279e-10
-1.1639542471e-11
2.73310654932e-10
-1.26496227597e-11
2.83353501417e-10
-1.36865057199e-11
2.94155404884e-10
-1.47415424646e-11
3.05717817679e-10
-1.58025415135e-11
3.1803036925e-10
-1.68533247492e-11
3.31067875208e-10
-1.78734054892e-11
3.44787296852e-10
-1.88378750814e-11
3.59124860723e-10
-1.97175902729e-11
3.73993598622e-10
-2.04797423773e-11
3.89281600657e-10
-2.10888571555e-11
4.0485126669e-10
-2.15082202186e-11
4.20539794841e-10
-2.17016572445e-11
4.36161055477e-10
-2.16355376725e-11
4.51508890761e-10
-2.12808373712e-11
4.66361769218e-10
-2.06151003066e-11
4.80488641421e-10
-1.962417605e-11
4.93655780757e-10
-1.83036508848e-11
5.05634349455e-10
-1.66599108556e-11
5.16208377819e-10
-1.47107686878e-11
5.25182791234e-10
-1.24855743602e-11
5.32391057318e-10
-1.00247200936e-11
5.37701961088e-10
-7.37843071907e-12
5.41024929818e-10
-4.60469626004e-12
5.42313277781e-10
-1.76624076845e-12
5.4156483066e-10
1.07335027403e-12
5.3881974739e-10
3.85380366138e-12
5.34155928254e-10
6.52173823695e-12
5.27682889744e-10
9.03290150432e-12
5.19535202969e-10
1.13527207279e-11
5.09866431578e-10
1.3455426655e-11
4.98844071693e-10
1.53224280382e-11
4.86645545787e-10
1.69406458392e-11
4.73454979303e-10
1.83013000951e-11
4.59460349503e-10
1.93993604963e-11
4.44850608096e-10
2.02336268867e-11
4.29812515607e-10
2.08072250994e-11
4.14527121781e-10
2.11282056506e-11
3.99166032401e-10
2.1209929488e-11
3.83887750661e-10
2.10710089673e-11
3.68834447057e-10
2.07347081634e-11
3.54129478967e-10
2.0227851158e-11
3.39875880236e-10
1.95793986372e-11
3.26155898279e-10
1.88189086351e-11
3.13031520178e-10
1.7975091857e-11
3.00545820603e-10
1.70746214135e-11
2.88724906406e-10
1.61412843636e-11
2.7758021668e-10
1.51954922255e-11
2.67110960314e-10
1.42541141152e-11
2.57306513902e-10
1.3330565576e-11
2.48148654823e-10
1.2435075912e-11
2.39613551027e-10
1.15750615935e-11
2.31673471054e-10
1.07555460561e-11
2.24298206955e-10
9.97958200965e-12
2.17456224814e-10
9.248647278e-12
2.11115568705e-10
8.56299773208e-12
2.05244551022e-10
7.92197013228e-12
1.99812262455e-10
7.32423414569e-12
1.94788934461e-10
6.76799666275e-12
1.90146182992e-10
6.25116371422e-12
1.85857159332e-10
5.77146606531e-12
1.81896628965e-10
5.32655467286e-12
1.78240996394e-10
4.91407170983e-12
1.74868289547e-10
4.53170228372e-12
1.71758115091e-10
4.17721120425e-12
1.68891592699e-10
3.84846853004e-12
1.66251274719e-10
3.54346695534e-12
1.63821055251e-10
3.26033365038e-12
1.61586071626e-10
2.99733871743e-12
1.59532599314e-10
2.75290220918e-12
1.57647940574e-10
2.52560144333e-12
1.559203054e-10
2.31418037755e-12
1.54338682561e-10
2.11756285832e-12
1.52892696612e-10
1.93487188001e-12
1.51572445685e-10
1.76545738429e-12
1.50368312379e-10
1.60893587935e-12
1.49270738309e-10
1.46524609284e-12
1.48269949633e-10
1.33472631227e-12
1.47355618445e-10
1.21822083759e-12
1.46516442022e-10
1.11722526247e-12
1.45739622522e-10
1.03408236369e-12
1.45010237478e-10
9.72240490785e-13
1.44310522184e-10
9.36577820746e-13
1.43619172941e-10
9.3375880783e-13
1.42911017226e-10
9.72461324033e-13
1.42158022245e-10
1.06288893565e-12
1.41334152418e-10
1.21361029427e-12
1.40431531343e-10
1.41804113852e-12
1.60538628848e-12
9.76217884628e-10
1.89994076779e-10
9.62979143234e-10
3.06401952575e-10
9.06102555559e-10
3.00159720471e-10
8.33754535657e-10
2.58065467755e-10
7.60930004972e-10
2.12547375028e-10
6.94039421812e-10
1.7277081521e-10
6.35152345186e-10
1.40296229047e-10
5.84372060019e-10
1.14389954618e-10
5.41014551016e-10
9.38205139727e-11
5.04157731631e-10
7.74258375356e-11
4.72879976258e-10
6.4255113963e-11
4.46351826506e-10
5.35708611013e-11
4.23861342864e-10
4.48126285614e-11
4.04811460038e-10
3.75566895758e-11
3.88707080502e-10
3.1481809454e-11
3.75139759383e-10
2.63427404141e-11
3.63773199599e-10
2.19504866836e-11
3.54330664716e-10
1.81578484865e-11
3.46584499508e-10
1.48488836827e-11
3.40347585227e-10
1.19312135915e-11
3.35466442567e-10
9.33037619838e-12
3.31815687667e-10
6.98565171285e-12
3.29293578278e-10
4.84695058826e-12
3.2781843017e-10
2.87247321777e-12
3.27325724735e-10
1.02693497007e-12
3.27765764328e-10
-7.19789927922e-13
3.29101758198e-10
-2.39370682492e-12
3.31308247366e-10
-4.01749883709e-12
3.34369794312e-10
-5.61114358031e-12
3.38279872148e-10
-7.19237729411e-12
3.43039897281e-10
-8.77703206821e-12
3.48658355711e-10
-1.03792631232e-11
3.55149975311e-10
-1.20116754929e-11
3.6253489789e-10
-1.36853534214e-11
3.70837803096e-10
-1.54097913988e-11
3.80086934827e-10
-1.71927220531e-11
3.90312977037e-10
-1.90398340838e-11
4.01547724025e-10
-2.09543724802e-11
4.13822487614e-10
-2.29366151148e-11
4.27166185875e-10
-2.49832241933e-11
4.41603062443e-10
-2.7086480363e-11
4.57149999612e-10
-2.92334213252e-11
4.73813409313e-10
-3.140492798e-11
4.91585722621e-10
-3.3574827868e-11
5.10441545722e-10
-3.57091181622e-11
5.30333615319e-10
-3.77654425688e-11
5.51188758191e-10
-3.96929827348e-11
5.72904137913e-10
-4.14329320711e-11
5.95344134434e-10
-4.29196985487e-11
6.18338241171e-10
-4.40829212696e-11
6.41680352094e-10
-4.48502867458e-11
6.65129748495e-10
-4.51510078579e-11
6.88413974227e-10
-4.49197170136e-11
7.11233643054e-10
-4.41004598565e-11
7.33269072079e-10
-4.26504841203e-11
7.54188522681e-10
-4.05435834525e-11
7.73657746091e-10
-3.77728343793e-11
7.91350471374e-10
-3.43526004543e-11
8.06959400654e-10
-3.03196677497e-11
8.20207205359e-10
-2.57333550621e-11
8.30856945216e-10
-2.0674443075e-11
8.38721270893e-10
-1.52427469528e-11
8.43669677637e-10
-9.55310143877e-12
8.45633005432e-10
-3.72957474506e-12
8.44604471017e-10
2.10187064649e-12
8.40636963749e-10
7.82128937695e-12
8.33837083641e-10
1.33215893406e-11
8.2435707582e-10
1.85128734226e-11
8.12386095163e-10
2.33236589532e-11
7.98142007131e-10
2.76994666577e-11
7.81864360576e-10
3.16000217356e-11
7.63808603118e-10
3.49963468322e-11
7.44241221095e-10
3.78686229822e-11
7.23435323682e-10
4.02051973255e-11
7.01666204392e-10
4.20026849909e-11
6.79206577599e-10
4.32667911327e-11
6.56321427735e-10
4.40132958161e-11
6.33262663089e-10
4.42686362584e-11
6.10263947448e-10
4.40696689433e-11
5.87536161736e-10
4.34624409116e-11
5.65263903223e-10
4.25000595661e-11
5.43603300077e-10
4.12399547921e-11
5.22681237241e-10
3.97409275708e-11
5.02595916536e-10
3.80603718378e-11
4.83418535879e-10
3.62519643801e-11
4.65195797794e-10
3.43639877676e-11
4.4795293533e-10
3.24383228156e-11
4.31696970379e-10
3.05100499151e-11
4.16419968862e-10
2.86075404363e-11
4.02102121212e-10
2.67528992904e-11
3.88714535288e-10
2.49626254065e-11
3.76221682442e-10
2.32483788408e-11
3.64583476084e-10
2.16177701471e-11
3.53756992061e-10
2.00751148217e-11
3.43697856838e-10
1.86221180324e-11
3.34361340796e-10
1.72584727224e-11
3.25703196595e-10
1.59823662078e-11
3.17680283665e-10
1.47908986956e-11
3.10251016117e-10
1.3680421471e-11
3.03375668445e-10
1.26468049941e-11
2.97016567811e-10
1.16856474934e-11
2.91138198055e-10
1.07924345357e-11
2.85707235273e-10
9.96265891514e-12
2.80692531744e-10
9.19190932179e-12
2.76065060645e-10
8.47593486591e-12
2.71797831769e-10
7.8106916831e-12
2.67865785102e-10
7.19237670171e-12
2.64245667597e-10
6.61745310929e-12
2.60915895836e-10
6.0826712866e-12
2.57856406199e-10
5.58508880248e-12
2.55048491951e-10
5.12209268404e-12
2.52474625815e-10
4.69142737212e-12
2.50118264558e-10
4.29123177071e-12
2.47963631474e-10
3.92008934582e-12
2.45995470875e-10
3.57709554304e-12
2.44198768689e-10
3.2619475253e-12
2.42558432948e-10
2.97506143377e-12
2.4105893103e-10
2.71772227183e-12
2.39683886676e-10
2.49226923512e-12
2.38415655794e-10
2.30231298416e-12
2.37234931824e-10
2.15296430627e-12
2.3612049698e-10
2.05101265914e-12
2.35049361784e-10
2.00489416044e-12
2.33997774858e-10
2.02404862986e-12
2.32943995971e-10
2.11666844776e-12
2.31874358484e-10
2.2832485365e-12
2.30793064111e-10
2.49933622297e-12
2.67414142488e-12
9.71765470807e-10
1.55728599233e-10
9.86683330377e-10
2.91484078734e-10
9.68194321727e-10
3.18648715247e-10
9.27918009433e-10
2.98341766118e-10
8.77710048202e-10
2.62755322015e-10
8.25093383075e-10
2.25387465914e-10
7.7421858284e-10
1.91171014801e-10
7.27119365979e-10
1.6148915702e-10
6.84610037551e-10
1.36329828016e-10
6.46842269171e-10
1.15193591646e-10
6.13630893289e-10
9.74664757186e-11
5.84637645028e-10
8.25640954096e-11
5.59471389647e-10
6.99788701877e-11
5.37740548287e-10
5.9287517407e-11
5.19078734358e-10
5.01436101058e-11
5.03155705023e-10
4.22657567587e-11
4.89680497267e-10
3.54256817654e-11
4.7840059539e-10
2.94377380433e-11
4.69099251056e-10
2.4150216086e-11
4.6159210074e-10
1.94383524086e-11
4.55723677566e-10
1.5198788344e-11
4.51364110574e-10
1.13452081944e-11
4.48406138043e-10
7.80491316934e-12
4.46762472683e-10
4.51612924349e-12
4.46363510461e-10
1.42588851998e-12
4.47155352874e-10
-1.51164028847e-12
4.49098098705e-10
-4.3364598253e-12
4.52164366479e-10
-7.08377293188e-12
4.56338003986e-10
-9.78478649664e-12
4.61612938844e-10
-1.24673165693e-11
4.67992127124e-10
-1.51562237009e-11
4.75486556883e-10
-1.78736950742e-11
4.84114261951e-10
-2.06393815094e-11
4.93899299577e-10
-2.34703906397e-11
5.0487064221e-10
-2.63811321725e-11
5.1706093065e-10
-2.93830070553e-11
5.3050503174e-10
-3.24839300481e-11
5.45238341346e-10
-3.56876751333e-11
5.61294771699e-10
-3.89930365714e-11
5.78704364847e-10
-4.23928063542e-11
5.97490480872e-10
-4.58725831955e-11
6.17666525514e-10
-4.94094504277e-11
6.39232207327e-10
-5.29705918068e-11
6.62169354998e-10
-5.65119549861e-11
6.86437380319e-10
-5.99771203021e-11
7.11968544632e-10
-6.32965809966e-11
7.38663269804e-10
-6.63876793278e-11
7.6638582363e-10
-6.91554546373e-11
7.94960785095e-10
-7.1494626202e-11
8.24170740515e-10
-7.32928404897e-11
8.53755651062e-10
-7.44351590274e-11
8.83414255414e-10
-7.48095722714e-11
9.12807726352e-10
-7.43131469248e-11
9.41565618281e-10
-7.28583103463e-11
9.69293962266e-10
-7.0378787125e-11
9.95585230414e-10
-6.68348120205e-11
1.02002980469e-09
-6.22173715641e-11
1.04222852242e-09
-5.65512846496e-11
1.06180579047e-09
-4.98969069275e-11
1.07842267144e-09
-4.23502127857e-11
1.09178927734e-09
-3.40410321863e-11
1.10167575943e-09
-2.51292192655e-11
1.10792108022e-09
-1.57984197834e-11
1.11043860427e-09
-6.24710377286e-12
1.1092175676e-09
3.32289496685e-12
1.10431998661e-09
1.27188508572e-11
1.09587353972e-09
2.17680097743e-11
1.0840618782e-09
3.03245019375e-11
1.06911418283e-09
3.82713153015e-11
1.05129542882e-09
4.55181764211e-11
1.03089806304e-09
5.19973389596e-11
1.00823510368e-09
5.76592544074e-11
9.83634252128e-10
6.24694205696e-11
9.57432449034e-10
6.64069453139e-11
9.29970341846e-10
6.94647368239e-11
9.01586326507e-10
7.16507517076e-11
8.72610116583e-10
7.29894522256e-11
8.43356091663e-10
7.35226095117e-11
8.14116889982e-10
7.33088212185e-11
7.85157792436e-10
7.2421491669e-11
7.56712384739e-10
7.09454232739e-11
7.28979819356e-10
6.89724791325e-11
7.02123780278e-10
6.65969285605e-11
6.76273046318e-10
6.39110706607e-11
6.51523391091e-10
6.10015873142e-11
6.27940473599e-10
5.79468757191e-11
6.05563354274e-10
5.48154151852e-11
5.84408304419e-10
5.1665075264e-11
5.64472637023e-10
4.8543185586e-11
5.45738359121e-10
4.54871570551e-11
5.28175513523e-10
4.2525452791e-11
5.11745136839e-10
3.96787390933e-11
4.96401805276e-10
3.69610868898e-11
4.82095772728e-10
3.43811340375e-11
4.68774726068e-10
3.19431527022e-11
4.56385195369e-10
2.964799267e-11
4.44873661672e-10
2.74938902695e-11
4.3418740647e-10
2.54771452946e-11
4.2427514453e-10
2.35926757379e-11
4.15087478524e-10
2.18344641879e-11
4.06577208914e-10
2.01959110684e-11
3.98699528237e-10
1.86701098964e-11
3.9141212387e-10
1.7250058613e-11
3.84675209425e-10
1.59288196946e-11
3.78451500685e-10
1.46996400685e-11
3.72706148905e-10
1.35560404176e-11
3.67406641e-10
1.2491881998e-11
3.62522673879e-10
1.150141802e-11
3.5802600766e-10
1.05793356451e-11
3.53890300875e-10
9.72079404401e-12
3.50090928848e-10
8.92146343875e-12
3.46604785331e-10
8.17756986058e-12
3.43410066085e-10
7.48595019321e-12
3.40486032682e-10
6.84412210551e-12
3.37812754405e-10
6.25037332408e-12
3.35370827247e-10
5.70387431471e-12
3.33141071327e-10
5.20481708849e-12
3.31104213681e-10
4.75457974465e-12
3.29240573467e-10
4.35590935425e-12
3.27529785191e-10
4.01310124919e-12
3.25950626813e-10
3.73212276407e-12
3.24481071506e-10
3.52056816833e-12
3.23098761467e-10
3.38720455851e-12
3.21782209109e-10
3.34060155336e-12
3.20513114785e-10
3.38576351499e-12
3.19279885172e-10
3.51647894682e-12
3.1808017431e-10
3.69904777109e-12
3.84378234201e-12
9.63967265666e-10
1.29261326193e-10
9.87782047792e-10
2.67669281516e-10
9.89966596875e-10
3.16464151436e-10
9.72603685687e-10
3.15704662694e-10
9.42634746316e-10
2.92724246512e-10
9.06100780183e-10
2.61921417003e-10
8.6719150056e-10
2.30080279314e-10
8.28549803957e-10
2.0013083852e-10
7.91728615235e-10
1.73151001686e-10
7.57564642045e-10
1.49357549871e-10
7.26443036792e-10
1.28588066118e-10
6.98474204129e-10
1.10532913355e-10
6.73608301045e-10
9.4844758712e-11
6.5170783418e-10
8.11879698941e-11
6.325928418e-10
6.92585883136e-11
6.16068440116e-10
5.87901445051e-11
6.01941164747e-10
4.95529434586e-11
5.90028271394e-10
4.13506180155e-11
5.80162664889e-10
3.40158095345e-11
5.72195154846e-10
2.74058497581e-11
5.65995111079e-10
2.13988198129e-11
5.61450192138e-10
1.58901152752e-11
5.58465565169e-10
1.0789528753e-11
5.56962873143e-10
6.01881040555e-12
5.56879102115e-10
1.50964924808e-12
5.58165435907e-10
-2.79798376328e-12
5.60786137475e-10
-6.95717040961e-12
5.64717485622e-10
-1.10151293667e-11
5.69946762891e-10
-1.50140712685e-11
5.76471280632e-10
-1.89918409529e-11
5.84297421133e-10
-2.29823699182e-11
5.93439669369e-10
-2.70159480104e-11
6.03919600492e-10
-3.11193162349e-11
6.15764783778e-10
-3.53155763264e-11
6.29007558001e-10
-3.96239074952e-11
6.43683628168e-10
-4.40590768973e-11
6.59830428507e-10
-4.86307285246e-11
6.77485193181e-10
-5.33424362646e-11
6.96682674278e-10
-5.81905123211e-11
7.17452448934e-10
-6.31625737034e-11
7.39815764534e-10
-6.82358894015e-11
7.63781886998e-10
-7.33755612531e-11
7.89343943533e-10
-7.85326343404e-11
8.16474293114e-10
-8.36422880592e-11
8.45119516114e-10
-8.86223242007e-11
8.7519519225e-10
-9.33722353318e-11
9.0658072845e-10
-9.77731909999e-11
9.39114599459e-10
-1.01689298362e-10
9.72590454768e-10
-1.04970451555e-10
1.00675460415e-09
-1.07456957349e-10
1.04130538937e-09
-1.08985909428e-10
1.07589486323e-09
-1.09399009338e-10
1.11013302494e-09
-1.08551270413e-10
1.14359463906e-09
-1.0631988542e-10
1.17582844881e-09
-1.02612557847e-10
1.20636844514e-09
-9.73747702488e-11
1.2347467768e-09
-9.05956671529e-11
1.26050783937e-09
-8.23123142734e-11
1.28322299589e-09
-7.26120348195e-11
1.30250527139e-09
-6.16324650091e-11
1.3180233006e-09
-4.95590444058e-11
1.32951379967e-09
-3.66197082751e-11
1.33679171766e-09
-2.30763350278e-11
1.33975693147e-09
-9.21232221586e-12
1.33839620571e-09
4.68360878142e-12
1.33277968091e-09
1.8335356676e-11
1.32305245932e-09
3.14952055884e-11
1.30942317595e-09
4.39537532281e-11
1.29215190932e-09
5.55425440739e-11
1.27153920788e-09
6.61308351058e-11
1.24791694535e-09
7.56195547751e-11
1.22164085882e-09
8.3935291368e-11
1.19308419162e-09
9.1026036367e-11
1.16263173978e-09
9.68593449096e-11
1.13067366849e-09
1.01422755884e-10
1.0975987078e-09
1.04725660956e-10
1.06378669652e-09
1.0680141346e-10
1.0296008049e-09
1.07708453018e-10
9.95380017724e-10
1.07529562589e-10
9.61432544488e-10
1.06368921727e-10
9.2803073688e-10
1.04347190488e-10
8.95407882646e-10
1.01595295865e-10
8.6375697782e-10
9.82477987711e-11
8.33231333492e-10
9.44366832265e-11
8.03946696366e-10
9.02861954206e-11
7.75984475138e-10
8.59090705555e-11
7.49395655057e-10
8.14042113352e-11
7.24205029357e-10
7.68556793411e-11
7.00415450022e-10
7.23327454206e-11
6.78011882697e-10
6.7890706839e-11
6.56965125678e-10
6.35721940522e-11
6.37235115973e-10
5.94087346693e-11
6.18773792677e-10
5.54223975293e-11
6.01527521767e-10
5.1627393632e-11
5.85439107864e-10
4.80315564974e-11
5.70449431343e-10
4.46376601841e-11
5.56498754739e-10
4.14445588577e-11
5.43527743936e-10
3.84481489887e-11
5.3147824761e-10
3.56421657712e-11
5.20293875217e-10
3.30188310384e-11
5.09920409135e-10
3.05693722829e-11
5.00306082185e-10
2.82844325986e-11
4.91401746827e-10
2.61543902813e-11
4.8316095823e-10
2.41696051136e-11
4.75539989211e-10
2.23206063679e-11
4.6849779172e-10
2.0598235608e-11
4.61995916244e-10
1.89937555433e-11
4.55998398039e-10
1.74989346301e-11
4.5047161659e-10
1.61061157929e-11
4.45384132975e-10
1.48082766197e-11
4.40706508033e-10
1.35990875685e-11
4.36411103139e-10
1.24729741396e-11
4.32471864434e-10
1.1425188449e-11
4.28864091104e-10
1.0451895129e-11
4.25564188574e-10
9.55027566175e-12
4.22549408982e-10
8.71865381148e-12
4.19797584101e-10
7.95664194898e-12
4.17286861275e-10
7.26530261597e-12
4.14995461468e-10
6.64730926219e-12
4.12901492228e-10
6.10707064967e-12
4.10982868236e-10
5.65074698693e-12
4.09217419146e-10
5.2860175902e-12
4.07583293432e-10
5.02133074443e-12
4.06059774045e-10
4.86412160304e-12
4.04628507676e-10
4.81703072433e-12
4.03274569211e-10
4.87041825771e-12
4.01984679861e-10
4.98893780568e-12
5.09255115136e-12
9.57592041354e-10
1.09169277253e-10
9.82700137844e-10
2.42561169499e-10
9.95356157872e-10
3.03808116351e-10
9.92811911314e-10
3.18248894155e-10
9.7821105055e-10
3.0732509186e-10
9.5565328744e-10
2.84479164515e-10
9.28588507337e-10
2.57145043753e-10
8.99548418206e-10
2.29170911986e-10
8.70269859181e-10
2.02429545086e-10
8.41887886886e-10
1.77739506609e-10
8.15107839097e-10
1.55368098437e-10
7.9033834305e-10
1.35302394038e-10
7.67788340939e-10
1.17394745584e-10
7.47535806493e-10
1.01440489245e-10
7.29575541152e-10
8.72188387246e-11
7.13851978852e-10
7.45136920653e-11
7.00281435212e-10
6.31234725707e-11
6.88767008662e-10
5.28650302806e-11
6.79208409131e-10
4.35743950489e-11
6.71508309941e-10
3.5105935233e-11
6.65576332666e-10
2.73307837023e-11
6.61331432217e-10
2.01350027063e-11
6.5870320957e-10
1.34177387811e-11
6.5763251265e-10
7.08949514852e-12
6.58071569291e-10
1.07058090791e-12
6.59983815308e-10
-4.71024095297e-12
6.63343518106e-10
-1.03168838094e-11
6.68135279087e-10
-1.58069003212e-11
6.74353441461e-10
-2.12322429357e-11
6.82001421748e-10
-2.66398297821e-11
6.91090967711e-10
-3.2071923607e-11
7.01641332666e-10
-3.75663197902e-11
7.13678345657e-10
-4.31563350675e-11
7.27233348288e-10
-4.88705837089e-11
7.42341960922e-10
-5.47325236923e-11
7.59042633999e-10
-6.07597522197e-11
7.77374933671e-10
-6.69630290024e-11
7.97377506203e-10
-7.33450080136e-11
8.19085662441e-10
-7.98986660471e-11
8.42528524433e-10
-8.66054312874e-11
8.67725681925e-10
-9.34330404417e-11
8.94683320603e-10
-1.00333191258e-10
9.23389808809e-10
-1.07239111508e-10
9.53810770312e-10
-1.14063235992e-10
9.85883729923e-10
-1.20695267587e-10
1.01951250069e-09
-1.27000987083e-10
1.05456158347e-09
-1.32822251896e-10
1.09085096626e-09
-1.37978656333e-10
1.12815182237e-09
-1.42271279923e-10
1.16618368593e-09
-1.45488790312e-10
1.20461369153e-09
-1.47415881744e-10
1.24305837083e-09
-1.47843652954e-10
1.28108829508e-09
-1.46581157029e-10
1.31823557809e-09
-1.43467129424e-10
1.35400399162e-09
-1.38380931791e-10
1.38788128155e-09
-1.31252020952e-10
1.41935322653e-09
-1.220675744e-10
1.44791897037e-09
-1.1087802312e-10
1.4731070705e-09
-9.78001040051e-11
1.49449155086e-09
-8.30169198039e-11
1.51170718775e-09
-6.67746622691e-11
1.5244633306e-09
-4.93758395331e-11
1.53255545668e-09
-3.11684574737e-11
1.53587313126e-09
-1.25300012882e-11
1.53440258306e-09
6.15414455155e-12
1.52822265325e-09
2.451526645e-11
1.51749470526e-09
4.2223126378e-11
1.50244904027e-09
5.89993844328e-11
1.48337097883e-09
7.46205659424e-11
1.46058878997e-09
8.89129796078e-11
1.4344641064e-09
1.0174419037e-10
1.40538438825e-09
1.13014959136e-10
1.3737566045e-09
1.22653768443e-10
1.34000124635e-09
1.30614651071e-10
1.30454589059e-09
1.36878060172e-10
1.2678178359e-09
1.41453665396e-10
1.23023579469e-09
1.44383406182e-10
1.19220107581e-09
1.45743125641e-10
1.1540889949e-09
1.45641599815e-10
1.11624133684e-09
1.442165389e-10
1.07896057084e-09
1.41627918539e-10
1.04250624351e-09
1.38049588223e-10
1.00709364348e-09
1.33660366774e-10
9.72894536148e-10
1.28635761412e-10
9.40039569645e-10
1.23141135509e-10
9.08621868151e-10
1.17326748234e-10
8.78701336094e-10
1.11324721986e-10
8.5030926422e-10
1.05247732052e-10
8.23452920989e-10
9.91890715297e-11
7.98119908138e-10
9.3223704441e-11
7.74282142069e-10
8.7409946553e-11
7.51899389022e-10
8.17914756754e-11
7.30922329853e-10
7.63994460193e-11
7.11295163396e-10
7.12545506419e-11
6.92957777603e-10
6.63689339369e-11
6.75847529363e-10
6.17479010627e-11
6.5990067859e-10
5.73914031506e-11
6.45053523147e-10
5.32952987549e-11
6.31243278858e-10
4.94524050963e-11
6.18408745563e-10
4.58533600228e-11
6.0649079551e-10
4.24873186068e-11
5.95432716043e-10
3.93425088694e-11
5.85180433734e-10
3.64066698684e-11
5.75682643065e-10
3.36673934951e-11
5.66890858659e-10
3.11123888712e-11
5.5875940677e-10
2.87296859441e-11
5.51245368517e-10
2.65077925503e-11
5.44308484865e-10
2.44358173131e-11
5.37911030959e-10
2.25035689682e-11
5.32017665685e-10
2.07016413753e-11
5.26595260661e-10
1.90214922526e-11
5.21612711848e-10
1.74555227669e-11
5.17040736091e-10
1.59971641468e-11
5.12851654718e-10
1.46409765475e-11
5.09019166571e-10
1.33827639352e-11
5.05518114014e-10
1.22197065605e-11
5.02324247571e-10
1.11505086297e-11
4.99413998505e-10
1.01755519575e-11
4.96764273897e-10
9.29703417412e-12
4.94352296212e-10
8.51904867234e-12
4.92155517952e-10
7.84752562767e-12
4.90151649136e-10
7.28988685767e-12
4.88318829921e-10
6.85415051834e-12
4.86635929701e-10
6.54702253085e-12
4.85082760023e-10
6.37020125609e-12
4.83639396734e-10
6.31378239632e-12
4.82282456659e-10
6.34587856209e-12
6.40018066248e-12
9.52986898241e-10
9.36823709639e-11
9.7668219228e-10
2.18865859389e-10
9.94213000138e-10
2.86277292844e-10
1.00085710259e-09
3.11604776192e-10
9.9723756696e-10
3.10944611728e-10
9.85759432624e-10
2.95957282928e-10
9.68960824132e-10
2.73943636263e-10
9.48970595262e-10
2.49161124878e-10
9.27416606502e-10
2.23983517906e-10
9.05482784843e-10
1.99673312389e-10
8.8400000241e-10
1.76850865068e-10
8.63532170803e-10
1.55770209936e-10
8.44447183378e-10
1.36479717408e-10
8.26972065291e-10
1.18915591856e-10
8.11234599582e-10
1.02956289102e-10
7.97294203993e-10
8.84540724876e-11
7.85164563383e-10
7.52530982032e-11
7.74830062246e-10
6.31995166525e-11
7.66257611415e-10
5.21468313533e-11
7.59405081765e-10
4.19584506241e-11
7.54227254025e-10
3.25085974792e-11
7.50679959349e-10
2.36822837457e-11
7.48722907364e-10
1.53747774898e-11
7.48321564986e-10
7.49082464574e-12
7.49448349768e-10
-5.62163213927e-14
7.52083322613e-10
-7.34522577079e-12
7.5621451569e-10
-1.44480883384e-11
7.61838001492e-10
-2.14303970047e-11
7.68957748233e-10
-2.83519999322e-11
7.77585303686e-10
-3.52673948026e-11
7.8773932647e-10
-4.22259551996e-11
7.99444968772e-10
-4.92719700643e-11
8.12733101757e-10
-5.64444751001e-11
8.27639364072e-10
-6.37768520464e-11
8.4420300411e-10
-7.12961686184e-11
8.62465478066e-10
-7.90222298051e-11
8.82468757871e-10
-8.69663110425e-11
9.04253296577e-10
-9.51295474144e-11
9.27855593854e-10
-1.03500962319e-10
9.53305302531e-10
-1.12055137095e-10
9.80621820012e-10
-1.20749553015e-10
1.00981031891e-09
-1.29521683037e-10
1.04085719278e-09
-1.38285975866e-10
1.07372493037e-09
-1.46930961524e-10
1.10834649072e-09
-1.55316813165e-10
1.14461933631e-09
-1.63273815045e-10
1.18239939468e-09