/*--------------------------------*- C++ -*----------------------------------*\
  =========                 |
  \\      /  F ield         | OpenFOAM: The Open Source CFD Toolbox
   \\    /   O peration     | Website:  https://openfoam.org
    \\  /    A nd           | Version:  7
     \\/     M anipulation  |
\*---------------------------------------------------------------------------*/
FoamFile
{
    version     2.0;
    format      ascii;
    class       volVectorField;
    location    "1200";
    object      U;
}
// * * * * * * * * * * * * * * * * * * * * * * * * * * * * * * * * * * * * * //

dimensions      [0 1 -1 0 0 0 0];

internalField   nonuniform List<vector> 
8192
(
(0.00104345693962 0.000156543060383 0)
(0.000759309625222 0.000127604249538 0)
(0.000549309002741 8.23963640855e-05 0)
(0.000414065801005 5.28468289852e-05 0)
(0.000326274780661 3.49441826596e-05 0)
(0.000267283128445 2.40474606149e-05 0)
(0.000226023644021 1.72120147186e-05 0)
(0.000196057280675 1.27543394909e-05 0)
(0.00017357505925 9.72787282874e-06 0)
(0.000156253725057 7.59345234544e-06 0)
(0.000142624398476 6.03586534264e-06 0)
(0.000131723698799 4.86482559977e-06 0)
(0.000122897399075 3.96146557186e-06 0)
(0.000115686963255 3.24896190085e-06 0)
(0.000109761966464 2.67602677204e-06 0)
(0.000104878559453 2.2073723742e-06 0)
(0.000100853138652 1.81804084188e-06 0)
(9.75451576381e-05 1.48993289637e-06 0)
(9.48455962958e-05 1.20962151036e-06 0)
(9.26690308535e-05 9.66937370765e-07 0)
(9.09480569737e-05 7.54030357966e-07 0)
(8.96292887652e-05 5.64732148675e-07 0)
(8.86704375168e-05 3.94113887245e-07 0)
(8.80381458667e-05 2.38173083597e-07 0)
(8.77063607568e-05 9.3607925392e-08 0)
(8.76550973958e-05 -4.23480375332e-08 0)
(8.7869491026e-05 -1.72048387759e-07 0)
(8.83390625966e-05 -2.97525244439e-07 0)
(8.90571456556e-05 -4.2055908611e-07 0)
(9.00204358092e-05 -5.42731487036e-07 0)
(9.12286317462e-05 -6.65463953777e-07 0)
(9.26841425997e-05 -7.90045418265e-07 0)
(9.4391840379e-05 -9.17649823236e-07 0)
(9.63588382218e-05 -1.04934434771e-06 0)
(9.85942756969e-05 -1.18608824295e-06 0)
(0.000101109091785 -1.3287216626e-06 0)
(0.000103915764552 -1.47794354076e-06 0)
(0.000107027994348 -1.63427721846e-06 0)
(0.000110460304716 -1.79802255259e-06 0)
(0.000114227532909 -1.96919339492e-06 0)
(0.000118344180453 -2.14744017036e-06 0)
(0.000122823594952 -2.33195853412e-06 0)
(0.000127676958586 -2.52138741953e-06 0)
(0.000132912068376 -2.7137027416e-06 0)
(0.000138531909834 -2.90611709476e-06 0)
(0.000144533050454 -3.09499988081e-06 0)
(0.000150903912237 -3.27583623639e-06 0)
(0.000157623020873 -3.4432447374e-06 0)
(0.000164657367545 -3.5910723471e-06 0)
(0.000171961049518 -3.71257822979e-06 0)
(0.000179474367559 -3.80070679194e-06 0)
(0.000187123544304 -3.84843556188e-06 0)
(0.000194821185852 -3.84917057432e-06 0)
(0.000202467546833 -3.79715441476e-06 0)
(0.000209952591454 -3.68785418545e-06 0)
(0.000217158786158 -3.51830511358e-06 0)
(0.000223964521018 -3.28739569416e-06 0)
(0.000230248032842 -2.99608422451e-06 0)
(0.000235891681238 -2.6475352354e-06 0)
(0.000240786401698 -2.24716004915e-06 0)
(0.000244836125141 -1.80254269846e-06 0)
(0.000247961907673 -1.32322419531e-06 0)
(0.000250105449204 -8.20307167546e-07 0)
(0.000251231608383 -3.05847547867e-07 0)
(0.000251329507322 2.07947275999e-07 0)
(0.000250411957344 7.09595582028e-07 0)
(0.000248513260991 1.18908793378e-06 0)
(0.000245685817701 1.6383369212e-06 0)
(0.000241996206029 2.05125092061e-06 0)
(0.000237521433613 2.42349259314e-06 0)
(0.00023234582723 2.75208029086e-06 0)
(0.000226558713348 3.03499611086e-06 0)
(0.000220252765672 3.27091083492e-06 0)
(0.000213522741493 3.45907014606e-06 0)
(0.000206464296754 3.59932972979e-06 0)
(0.000199172633517 3.69228774056e-06 0)
(0.000191740858031 3.73944178085e-06 0)
(0.000184258071982 3.74329872681e-06 0)
(0.000176807343665 3.70738500481e-06 0)
(0.000169463778761 3.63613670178e-06 0)
(0.000162292919594 3.53468099755e-06 0)
(0.000155349653436 3.4085456661e-06 0)
(0.000148677725752 3.26334466768e-06 0)
(0.000142309859752 3.10448622157e-06 0)
(0.000136268403419 2.93693728085e-06 0)
(0.000130566373449 2.76506212808e-06 0)
(0.000125208746138 2.59253684872e-06 0)
(0.0001201938528 2.42233030654e-06 0)
(0.000115514762531 2.25673584271e-06 0)
(0.000111160567855 2.09743666796e-06 0)
(0.000107117521529 1.94558933775e-06 0)
(0.000103370000414 1.80191318216e-06 0)
(9.9901293228e-05 1.66677702026e-06 0)
(9.66942227257e-05 1.54027799521e-06 0)
(9.37316208228e-05 1.42230980983e-06 0)
(9.09966785247e-05 1.31261967447e-06 0)
(8.84731929119e-05 1.21085431263e-06 0)
(8.61457318831e-05 1.11659618601e-06 0)
(8.39997349228e-05 1.02939125646e-06 0)
(8.20215652884e-05 9.48769792286e-07 0)
(8.01985262541e-05 8.74261516594e-07 0)
(7.85188514406e-05 8.05406362632e-07 0)
(7.6971677063e-05 7.41761809421e-07 0)
(7.55470020114e-05 6.82907705391e-07 0)
(7.42356401558e-05 6.28449227309e-07 0)
(7.30291679772e-05 5.78018589724e-07 0)
(7.19198696186e-05 5.3127592007e-07 0)
(7.09006805856e-05 4.87909730434e-07 0)
(6.99651306175e-05 4.47637278222e-07 0)
(6.9107285588e-05 4.10205173496e-07 0)
(6.83216876657e-05 3.75390514386e-07 0)
(6.76032922655e-05 3.43002958043e-07 0)
(6.6947399511e-05 3.1288814128e-07 0)
(6.63495768603e-05 2.84933094676e-07 0)
(6.5805568104e-05 2.59074457663e-07 0)
(6.53111818577e-05 2.35310767802e-07 0)
(6.48621495787e-05 2.13720648484e-07 0)
(6.44539383721e-05 1.94489831566e-07 0)
(6.40814963073e-05 1.77951624143e-07 0)
(6.37388956695e-05 1.64648507785e-07 0)
(6.3418819079e-05 1.55427671065e-07 0)
(6.31117989952e-05 1.51592093482e-07 0)
(6.28050646041e-05 1.55142077143e-07 0)
(6.24807670251e-05 1.69155396604e-07 0)
(6.21132798785e-05 1.98331785439e-07 0)
(6.166551485e-05 2.49433445448e-07 0)
(6.10862133714e-05 3.29868421967e-07 0)
(6.03330834809e-05 4.23261959704e-07 0)
(0.00121016739639 0.000302918720063 0)
(0.00116031456955 0.000315228713617 0)
(0.00102698948806 0.000238097577825 0)
(0.000887672274799 0.000171706004318 0)
(0.000767181464317 0.000124366811911 0)
(0.000668987102982 9.18108180971e-05 0)
(0.000590381336272 6.93138812619e-05 0)
(0.000527535608529 5.34645368989e-05 0)
(0.000477011273501 4.20242048972e-05 0)
(0.000436072068545 3.35576327469e-05 0)
(0.000402631670289 2.71413834992e-05 0)
(0.00037511948224 2.21721693744e-05 0)
(0.000352352231855 1.82476466654e-05 0)
(0.000333432097487 1.50933263772e-05 0)
(0.00031767114278 1.25175898678e-05 0)
(0.000304536687475 1.03836484375e-05 0)
(0.000293612089231 8.59176151576e-06 0)
(0.000284568520324 7.06774077348e-06 0)
(0.000277144506766 5.75536819429e-06 0)
(0.000271130948246 4.6112954417e-06 0)
(0.000266360030484 3.60154596134e-06 0)
(0.000262696926791 2.69907183376e-06 0)
(0.000260033519567 1.88201753531e-06 0)
(0.000258283601171 1.13246594468e-06 0)
(0.000257379170448 4.35519096376e-07 0)
(0.00025726754924 -2.21384557382e-07 0)
(0.000257909117448 -8.48981593862e-07 0)
(0.000259275517162 -1.45656901771e-06 0)
(0.000261348214684 -2.05229922612e-06 0)
(0.000264117334607 -2.64340221316e-06 0)
(0.000267580695671 -3.23634828599e-06 0)
(0.000271742989828 -3.83696121725e-06 0)
(0.000276615053391 -4.45048733897e-06 0)
(0.000282213182987 -5.08162287045e-06 0)
(0.00028855845008 -5.73449928039e-06 0)
(0.000295675966762 -6.41262453528e-06 0)
(0.000303594052939 -7.11877665085e-06 0)
(0.000312343251556 -7.8548451987e-06 0)
(0.000321955135148 -8.62161659665e-06 0)
(0.000332460844983 -9.41850057634e-06 0)
(0.000343889305095 -1.02431987366e-05 0)
(0.000356265060063 -1.10913221949e-05 0)
(0.000369605700032 -1.19559745969e-05 0)
(0.00038391886244 -1.28273293103e-05 0)
(0.000399198839635 -1.36922449342e-05 0)
(0.000415422876453 -1.45339793939e-05 0)
(0.000432547310118 -1.53320762885e-05 0)
(0.000450503780848 -1.60625025121e-05 0)
(0.000469195813981 -1.66981074686e-05 0)
(0.000488496127539 -1.72094468093e-05 0)
(0.000508245035103 -1.75659677319e-05 0)
(0.00052825027938 -1.77374961983e-05 0)
(0.000548288544204 -1.76959146847e-05 0)
(0.000568108765592 -1.74168903324e-05 0)
(0.000587437222387 -1.68815183817e-05 0)
(0.000605984262809 -1.60777777856e-05 0)
(0.000623452430193 -1.50017322605e-05 0)
(0.000639545683335 -1.36584271721e-05 0)
(0.000653979345455 -1.20624271956e-05 0)
(0.000666490348194 -1.02379276397e-05 0)
(0.000676847263073 -8.21836355835e-06 0)
(0.00068485953178 -6.04541985551e-06 0)
(0.00069038521018 -3.76731277397e-06 0)
(0.000693336452863 -1.43624163967e-06 0)
(0.000693681989402 8.94891451379e-07 0)
(0.000691446129952 3.17602992531e-06 0)
(0.000686704432412 5.36300040542e-06 0)
(0.000679576843519 7.41939388396e-06 0)
(0.000670219579336 9.31699218649e-06 0)
(0.00065881704611 1.10349656523e-05 0)
(0.000645574722093 1.25584342353e-05 0)
(0.000630713355187 1.38770094479e-05 0)
(0.000614464336058 1.49837428958e-05 0)
(0.000597065810436 1.58746608637e-05 0)
(0.000578759012863 1.65488509373e-05 0)
(0.00055978439917 1.70089118042e-05 0)
(0.000540377367928 1.72614933972e-05 0)
(0.000520763618676 1.73176535992e-05 0)
(0.00050115442116 1.71928307439e-05 0)
(0.00048174220654 1.69063499264e-05 0)
(0.000462696912655 1.64805057387e-05 0)
(0.00044416342989 1.59393607939e-05 0)
(0.00042626033825 1.53074461942e-05 0)
(0.000409079947813 1.46085450101e-05 0)
(0.0003926894981 1.38646949855e-05 0)
(0.000377133265286 1.30954841208e-05 0)
(0.000362435278775 1.23176518731e-05 0)
(0.000348602353276 1.15449633402e-05 0)
(0.000335627183499 1.07882978114e-05 0)
(0.000323491307984 1.00558852516e-05 0)
(0.000312167811744 9.3536287576e-06 0)
(0.000301623694131 8.68546265804e-06 0)
(0.000291821873926 8.05370950643e-06 0)
(0.000282722836333 7.45941225313e-06 0)
(0.000274285947852 6.90262835837e-06 0)
(0.000266470476625 6.38268055913e-06 0)
(0.000259236360625 5.89836416588e-06 0)
(0.000252544766027 5.44811405016e-06 0)
(0.000246358475171 5.03013603356e-06 0)
(0.000240642139088 4.64250807409e-06 0)
(0.00023536242451 4.28325650723e-06 0)
(0.00023048808023 3.95041225692e-06 0)
(0.000225989943002 3.642051271e-06 0)
(0.000221840898968 3.35632287611e-06 0)
(0.000218015812986 3.09146908653e-06 0)
(0.000214491435148 2.84583744114e-06 0)
(0.00021124629118 2.61788945631e-06 0)
(0.000208260561201 2.40620650959e-06 0)
(0.000205515949401 2.2094946921e-06 0)
(0.000202995545528 2.02659009723e-06 0)
(0.000200683677423 1.85646595602e-06 0)
(0.000198565752295 1.69824318737e-06 0)
(0.000196628082671 1.55120614449e-06 0)
(0.000194857691071 1.41482582062e-06 0)
(0.000193242085161 1.28879342045e-06 0)
(0.00019176899244 1.17306826722e-06 0)
(0.000190426040283 1.06794548834e-06 0)
(0.00018920036357 9.74151167625e-07 0)
(0.000188078118699 8.92975792121e-07 0)
(0.000187043881308 8.26461220545e-07 0)
(0.000186079910401 7.77661585168e-07 0)
(0.000185165286184 7.51001898759e-07 0)
(0.00018427500488 7.52747714154e-07 0)
(0.000183379321706 7.91530643985e-07 0)
(0.000182444185261 8.78580704257e-07 0)
(0.000181434991784 1.02614403378e-06 0)
(0.000180330037607 1.23741475062e-06 0)
(0.000179148175136 1.45070918433e-06 0)
(0.00122477944616 0.000267971868819 0)
(0.00124108609783 0.000383721713727 0)
(0.00119621228723 0.000347803434841 0)
(0.00111350853838 0.000284021074695 0)
(0.001020598106 0.00022545294927 0)
(0.000931180433142 0.000178336679217 0)
(0.000850682730879 0.000141891453133 0)
(0.000780495619331 0.000113919768363 0)
(0.000720247431062 9.2341461011e-05 0)
(0.000668910260894 7.55167164243e-05 0)
(0.000625304133049 6.22287910928e-05 0)
(0.000588308353769 5.15926948795e-05 0)
(0.000556936428397 4.29662633729e-05 0)
(0.000530350593858 3.58806458048e-05 0)
(0.000507851865946 2.99899211463e-05 0)
(0.000488861977526 2.50356299283e-05 0)
(0.000472904293749 2.08220321514e-05 0)
(0.000459586473161 1.71988309084e-05 0)
(0.000448585705103 1.40490322409e-05 0)
(0.00043963653423 1.12803347695e-05 0)
(0.000432520977788 8.81895637034e-06 0)
(0.00042706056335 6.60515678131e-06 0)
(0.000423109930205 4.58995202454e-06 0)
(0.000420551685407 2.73267572046e-06 0)
(0.000419292259139 9.99149551828e-07 0)
(0.000419258553 -6.39702073719e-07 0)
(0.000420395214416 -2.20890557405e-06 0)
(0.000422662403561 -3.73024302901e-06 0)
(0.000426033946674 -5.22287203141e-06 0)
(0.000430495786535 -6.70379219436e-06 0)
(0.000436044652435 -8.18818485587e-06 0)
(0.000442686881915 -9.68964419786e-06 0)
(0.000450437331854 -1.12203098312e-05 0)
(0.000459318318848 -1.27909047124e-05 0)
(0.000469358528631 -1.44106775326e-05 0)
(0.000480591832271 -1.60872449866e-05 0)
(0.000493055943593 -1.78263269237e-05 0)
(0.000506790848679 -1.96313663676e-05 0)
(0.000521836935449 -2.15030277175e-05 0)
(0.000538232751033 -2.34385706651e-05 0)
(0.000556012318924 -2.54311059985e-05 0)
(0.000575201959715 -2.74687533088e-05 0)
(0.000595816581712 -2.95337410846e-05 0)
(0.000617855444438 -3.16015164041e-05 0)
(0.000641297451739 -3.36399634633e-05 0)
(0.000666096103066 -3.56088627571e-05 0)
(0.000692174319047 -3.74597490023e-05 0)
(0.000719419453507 -3.91363343002e-05 0)
(0.000747678894302 -4.05756421926e-05 0)
(0.000776756720387 -4.17099381921e-05 0)
(0.00080641189969 -4.24694444572e-05 0)
(0.000836358464377 -4.27857056655e-05 0)
(0.000866267982542 -4.25953629991e-05 0)
(0.000895774475059 -4.18440302258e-05 0)
(0.000924481737685 -4.04899740332e-05 0)
(0.000951972860646 -3.85073660816e-05 0)
(0.000977821612014 -3.58889505691e-05 0)
(0.00100160525918 -3.26480072384e-05 0)
(0.0010229183181 -2.881947932e-05 0)
(0.00104138662785 -2.44601148302e-05 0)
(0.00105668105637 -1.96474644279e-05 0)
(0.00106853005831 -1.447755371e-05 0)
(0.00107673020706 -9.06099052724e-06 0)
(0.00108115371716 -3.51732192865e-06 0)
(0.00108175198493 2.03214138913e-06 0)
(0.00107855451825 7.47205954453e-06 0)
(0.00107166339033 1.26997296496e-05 0)
(0.00106124426206 1.76292959532e-05 0)
(0.00104751562943 2.2192882996e-05 0)
(0.00103073798547 2.63391317201e-05 0)
(0.00101120407533 3.00303678552e-05 0)
(0.000989230696764 3.32396753096e-05 0)
(0.000965151887496 3.59487507695e-05 0)
(0.000939312988657 3.81469170059e-05 0)
(0.000912064977967 3.98312396017e-05 0)
(0.000883758580474 4.10073703886e-05 0)
(0.000854737923414 4.16905609387e-05 0)
(0.000825333818127 4.19062820777e-05 0)
(0.000795857030743 4.16900338627e-05 0)
(0.000766592069878 4.1086175408e-05 0)
(0.000737792041574 4.01458628634e-05 0)
(0.000709675010112 3.89243861948e-05 0)
(0.000682422103884 3.74782951718e-05 0)
(0.000656177378417 3.58626967647e-05 0)
(0.000631049249545 3.41290149079e-05 0)
(0.000607113173551 3.23233741639e-05 0)
(0.0005844151892 3.04856416263e-05 0)
(0.000562975939654 2.86490649794e-05 0)
(0.000542794841114 2.68403878479e-05 0)
(0.000523854137647 2.50803041295e-05 0)
(0.00050612266016 2.338411968e-05 0)
(0.000489559179347 2.1762511934e-05 0)
(0.000474115301457 2.02223053803e-05 0)
(0.000459737899613 1.87672077438e-05 0)
(0.000446371103295 1.73984740893e-05 0)
(0.000433957886486 1.6115483427e-05 0)
(0.00042244130393 1.49162242262e-05 0)
(0.000411765427367 1.37976930293e-05 0)
(0.000401876031861 1.27562145185e-05 0)
(0.00039272107812 1.1787693478e-05 0)
(0.000384251031204 1.08878093864e-05 0)
(0.000376419050154 1.00521639971e-05 0)
(0.00036918107733 9.27639116727e-06 0)
(0.000362495850891 8.55623713666e-06 0)
(0.000356324859129 7.88761817341e-06 0)
(0.000350632251145 7.2666615286e-06 0)
(0.000345384714797 6.68973462534e-06 0)
(0.000340551329727 6.1534667691e-06 0)
(0.000336103400597 5.6547670373e-06 0)
(0.000332014273302 5.19084175732e-06 0)
(0.000328259134816 4.75921475942e-06 0)
(0.00032481479537 4.35775374749e-06 0)
(0.000321659449839 3.98470633646e-06 0)
(0.000318772413461 3.63874990727e-06 0)
(0.000316133825504 3.31906011033e-06 0)
(0.000313724313321 3.02540391561e-06 0)
(0.000311524609048 2.75826415746e-06 0)
(0.000309515112946 2.51900359003e-06 0)
(0.000307675403332 2.31007647846e-06 0)
(0.000305983707181 2.13529302262e-06 0)
(0.000304416376076 2.00013107012e-06 0)
(0.000302947474434 1.91205790713e-06 0)
(0.000301548709609 1.88073789969e-06 0)
(0.000300190167451 1.91776637049e-06 0)
(0.00029884273333 2.03491672538e-06 0)
(0.000297483746851 2.23798965169e-06 0)
(0.000296107150461 2.50712151135e-06 0)
(0.000294731119071 2.73889773655e-06 0)
(0.00122192990132 0.000221262512648 0)
(0.00125340723276 0.000382647060038 0)
(0.00125112169735 0.00039603739886 0)
(0.00121351189194 0.000356100629679 0)
(0.00115560195689 0.000304193726107 0)
(0.00108979419602 0.00025482129992 0)
(0.00102355965819 0.000212139036063 0)
(0.000960856287244 0.000176562631448 0)
(0.000903506818259 0.000147296218873 0)
(0.000852129476302 0.000123276434676 0)
(0.000806702823974 0.000103501817396 0)
(0.000766891864523 8.7126372167e-05 0)
(0.000732229782192 7.34665591994e-05 0)
(0.000702215640277 6.1980292469e-05 0)
(0.000676364340893 5.22402685183e-05 0)
(0.000654230041204 4.39094381906e-05 0)
(0.000635415169466 3.67207478074e-05 0)
(0.000619571899301 3.0461175379e-05 0)
(0.000606399901726 2.4959423852e-05 0)
(0.00059564246515 2.00765222401e-05 0)
(0.000587082098116 1.56986653071e-05 0)
(0.000580536184409 1.17317503407e-05 0)
(0.000575852959115 8.09719280486e-06 0)
(0.000572907910864 4.72870557521e-06 0)
(0.000571600629212 1.56980703363e-06 0)
(0.000571852072534 -1.42811533849e-06 0)
(0.000573602209011 -4.30730665614e-06 0)
(0.000576807977718 -7.10481393214e-06 0)
(0.000581441517097 -9.85339524925e-06 0)
(0.000587488603411 -1.25822040726e-05 0)
(0.000594947242219 -1.53172836922e-05 0)
(0.000603826357764 -1.80818932463e-05 0)
(0.000614144524054 -2.08966764815e-05 0)
(0.000625928679378 -2.37796761991e-05 0)
(0.000639212762743 -2.67461910856e-05 0)
(0.00065403620663 -2.98084666294e-05 0)
(0.000670442215929 -3.29752090444e-05 0)
(0.000688475758775 -3.62509104726e-05 0)
(0.000708181192349 -3.96349770791e-05 0)
(0.00072959944739 -4.31206595504e-05 0)
(0.00075276470126 -4.66938006774e-05 0)
(0.000777700484087 -5.03314379218e-05 0)
(0.000804415189018 -5.40003326636e-05 0)
(0.000832896999888 -5.76555410266e-05 0)
(0.000863108310603 -6.12391926171e-05 0)
(0.000894979791969 -6.46796950818e-05 0)
(0.000928404361239 -6.789162372e-05 0)
(0.000963231419798 -7.07765674934e-05 0)
(0.000999261829584 -7.32251678405e-05 0)
(0.00103624417639 -7.51204875259e-05 0)
(0.00107387289061 -7.63426852948e-05 0)
(0.00111178874014 -7.67747712828e-05 0)
(0.00114958206833 -7.63090329206e-05 0)
(0.00118679894057 -7.48536129298e-05 0)
(0.00122295013155 -7.2338733597e-05 0)
(0.00125752268332 -6.87221731027e-05 0)
(0.00128999362247 -6.39937318038e-05 0)
(0.00131984532935 -5.81784864665e-05 0)
(0.00134658196025 -5.13386077934e-05 0)
(0.00136974621562 -4.35734834226e-05 0)
(0.00138893564721 -3.50179041672e-05 0)
(0.00140381762353 -2.58380583797e-05 0)
(0.00141414197738 -1.62249735822e-05 0)
(0.00141975019807 -6.38507425147e-06 0)
(0.00142057995 3.47184999254e-06 0)
(0.0014166640347 1.31456897498e-05 0)
(0.00140812385685 2.24573434335e-05 0)
(0.00139515866747 3.12559202304e-05 0)
(0.00137803267906 3.9420783523e-05 0)
(0.00135706215146 4.68592915704e-05 0)
(0.00133260383479 5.35023108449e-05 0)
(0.0013050452267 5.92995847933e-05 0)
(0.00127479638772 6.42163478732e-05 0)
(0.00124228268874 6.82317712892e-05 0)
(0.00120793778616 7.13391499615e-05 0)
(0.00117219626775 7.35472274178e-05 0)
(0.00113548572358 7.48817587467e-05 0)
(0.00109821837328 7.53863972928e-05 0)
(0.00106078270825 7.51222337035e-05 0)
(0.00102353579675 7.41657168516e-05 0)
(0.000986796913392 7.26051090176e-05 0)
(0.000950843010621 7.05359577117e-05 0)
(0.000915906303766 6.8056227924e-05 0)
(0.000882173969022 6.5261723199e-05 0)
(0.000849789719942 6.22422730844e-05 0)
(0.000818856873402 5.90789526314e-05 0)
(0.000789442449839 5.58423923205e-05 0)
(0.000761581861564 5.25920801146e-05 0)
(0.000735283802523 4.93764646543e-05 0)
(0.000710535037532 4.62336360611e-05 0)
(0.000687304878492 4.31923700464e-05 0)
(0.000665549216232 4.02733554778e-05 0)
(0.000645214042954 3.74904685037e-05 0)
(0.000626238449923 3.48519992699e-05 0)
(0.00060855711923 3.23617732701e-05 0)
(0.00059210234972 3.00201378512e-05 0)
(0.000576805668506 2.78248041455e-05 0)
(0.000562599083611 2.57715481537e-05 0)
(0.00054941603264 2.38547822137e-05 0)
(0.000537192078755 2.20680122765e-05 0)
(0.000525865399961 2.04041974796e-05 0)
(0.000515377111777 1.88560284365e-05 0)
(0.000505671457349 1.7416139218e-05 0)
(0.000496695893309 1.60772665705e-05 0)
(0.00048840109447 1.4832367958e-05 0)
(0.000480740895738 1.36747085444e-05 0)
(0.000473672185539 1.25979255678e-05 0)
(0.000467154761523 1.15960775228e-05 0)
(0.000461151156185 1.06636844363e-05 0)
(0.000455626437462 9.79576502175e-06 0)
(0.000450547987023 8.98787591859e-06 0)
(0.000445885257075 8.23615822893e-06 0)
(0.000441609504907 7.53739645691e-06 0)
(0.000437693503211 6.88909532885e-06 0)
(0.000434111223735 6.28958007495e-06 0)
(0.000430837492257 5.7381259776e-06 0)
(0.000427847615087 5.23512225425e-06 0)
(0.000425116982405 4.78227329055e-06 0)
(0.000422620663775 4.3828342972e-06 0)
(0.000420333029542 4.04186510934e-06 0)
(0.000418227463683 3.76645572502e-06 0)
(0.000416276286924 3.56581172959e-06 0)
(0.000414451093103 3.45094318013e-06 0)
(0.000412723821169 3.43337611726e-06 0)
(0.000411069007292 3.52155645616e-06 0)
(0.000409467519973 3.71182558932e-06 0)
(0.000407910438069 3.9669657562e-06 0)
(0.000406394053224 4.17147121081e-06 0)
(0.00121693905003 0.000182393552272 0)
(0.00124911956061 0.00035785815056 0)
(0.00126575913259 0.000406472234677 0)
(0.00125604498084 0.00039298971444 0)
(0.00122575259648 0.000355506923857 0)
(0.00118319073696 0.000311877685067 0)
(0.00113490705968 0.000269600828233 0)
(0.00108527443489 0.000231436797146 0)
(0.00103697818828 0.000198067731009 0)
(0.000991547684659 0.00016931273057 0)
(0.000949764914455 0.000144674906775 0)
(0.00091194703419 0.000123582085609 0)
(0.000878132803311 0.000105487122496 0)
(0.000848202326544 8.99043118727e-05 0)
(0.000821952432627 7.64174069884e-05 0)
(0.000799143220427 6.46757768089e-05 0)
(0.000779526147113 5.43863201434e-05 0)
(0.00076286043913 4.53045478776e-05 0)
(0.000748922199221 3.72262563971e-05 0)
(0.000737509004631 2.99802893867e-05 0)
(0.000728441770192 2.34224692204e-05 0)
(0.000721564994059 1.74306070206e-05 0)
(0.000716746084676 1.19004428303e-05 0)
(0.000713874200519 6.74236137539e-06 0)
(0.000712858864165 1.87874417156e-06 0)
(0.000713628504334 -2.75815939312e-06 0)
(0.000716129006964 -7.22792335034e-06 0)
(0.000720322318782 -1.15832974711e-05 0)
(0.000726185119048 -1.58712689697e-05 0)
(0.000733707547855 -2.01338608142e-05 0)
(0.00074289196913 -2.44086999163e-05 0)
(0.000753751737922 -2.87293715741e-05 0)
(0.000766309932711 -3.31255665563e-05 0)
(0.000780598005933 -3.76230188583e-05 0)
(0.000796654298739 -4.22432253873e-05 0)
(0.000814522359149 -4.70029337297e-05 0)
(0.000834248996273 -5.19133814865e-05 0)
(0.000855881997881 -5.69792712947e-05 0)
(0.000879467435174 -6.21974712912e-05 0)
(0.000905046478855 -6.75554432369e-05 0)
(0.000932651656619 -7.30294224621e-05 0)
(0.00096230249698 -7.85824074757e-05 0)
(0.00099400053154 -8.41620647342e-05 0)
(0.00102772367145 -8.9698715549e-05 0)
(0.00106342003791 -9.51036444818e-05 0)
(0.00110100141335 -0.00010026804245 0)
(0.00114033658925 -0.00010506295701 0)
(0.00118124500986 -0.00010934064192 0)
(0.00122349123471 -0.000112937649765 0)
(0.00126678083771 -0.000115679870617 0)
(0.00131075839585 -0.000117389483812 0)
(0.00135500816166 -0.00011789349223 0)
(0.00139905784843 -0.000117033227096 0)
(0.00144238570496 -0.00011467404529 0)
(0.00148443077624 -0.000110714460782 0)
(0.00152460601213 -0.000105094132652 0)
(0.00156231374204 -9.78003447789e-05 0)
(0.00159696295435 -8.88727033107e-05 0)
(0.00162798773456 -7.84057227181e-05 0)
(0.00165486609106 -6.65489137887e-05 0)
(0.00167713828607 -5.35040490189e-05 0)
(0.00169442374417 -3.9519313626e-05 0)
(0.00170643553109 -2.48798430792e-05 0)
(0.00171299113544 -9.89403263279e-06 0)
(0.00171401800779 5.12416239889e-06 0)
(0.00170955256743 1.98746928213e-05 0)
(0.00169973256975 3.40884578322e-05 0)
(0.00168478440657 4.7538083306e-05 0)
(0.00166500805457 6.00408700003e-05 0)
(0.00164076231501 7.14553673772e-05 0)
(0.00161245193807 8.16748119902e-05 0)
(0.00158051699467 9.06205092963e-05 0)
(0.00154542403228 9.82370924394e-05 0)
(0.00150765819609 0.000104490425743 0)
(0.0014677154613 0.000109367995333 0)
(0.00142609432083 0.000112880904104 0)
(0.00138328665876 0.000115066154039 0)
(0.0013397680009 0.000115987880019 0)
(0.00129598772648 0.000115736565637 0)
(0.00125236003982 0.000114425864574 0)
(0.00120925650008 0.000112187272807 0)
(0.0011670007165 0.000109163375998 0)
(0.0011258655107 0.000105500625492 0)
(0.00108607251924 0.000101342562488 0)
(0.00104779393911 9.68241809503e-05 0)
(0.00101115594976 9.20678056157e-05 0)
(0.000976243283325 8.7180560973e-05 0)
(0.000943104438025 8.22532829472e-05 0)
(0.000911757106802 7.73605958442e-05 0)
(0.00088219349294 7.25618328923e-05 0)
(0.00085438528536 6.79024939797e-05 0)
(0.000828288154657 6.3415983208e-05 0)
(0.000803845701537 5.91254300283e-05 0)
(0.000780992841245 5.50454577085e-05 0)
(0.000759658642964 5.11838138877e-05 0)
(0.000739768665093 4.75428178266e-05 0)
(0.000721246839093 4.41206074414e-05 0)
(0.000704016959152 4.09121883413e-05 0)
(0.00068800383459 3.79102985658e-05 0)
(0.000673134158609 3.51061089448e-05 0)
(0.000659337141985 3.24897813449e-05 0)
(0.000646544954444 3.00509071968e-05 0)
(0.000634693010568 2.77788472923e-05 0)
(0.000623720131237 2.56629918773e-05 0)
(0.000613568606363 2.36929577193e-05 0)
(0.000604184179796 2.18587366564e-05 0)
(0.000595515973096 2.01508080264e-05 0)
(0.000587516361141 1.85602256961e-05 0)
(0.000580140809362 1.70786889203e-05 0)
(0.000573347679722 1.56986052248e-05 0)
(0.000567098010245 1.44131526446e-05 0)
(0.00056135527115 1.32163481601e-05 0)
(0.000556085099247 1.2103128731e-05 0)
(0.000551255011544 1.10694510301e-05 0)
(0.000546834098994 1.01124153509e-05 0)
(0.000542792702435 9.23041800076e-06 0)
(0.000539102075573 8.42333378399e-06 0)
(0.000535734045041 7.69272471079e-06 0)
(0.000532660686556 7.04205991452e-06 0)
(0.000529854050366 6.47691001527e-06 0)
(0.000527285990697 6.00503664064e-06 0)
(0.000524928183924 5.63621488546e-06 0)
(0.00052275245605 5.38146259388e-06 0)
(0.000520731563185 5.2510228201e-06 0)
(0.000518840500302 5.24978831316e-06 0)
(0.000517057969208 5.3676142109e-06 0)
(0.000515365919406 5.56031076913e-06 0)
(0.000513741178469 5.71925343576e-06 0)
(0.00121285890647 0.000152595586205 0)
(0.00124178699469 0.00032654748865 0)
(0.00126595602926 0.000396974251383 0)
(0.00127242756428 0.000405730276383 0)
(0.00126145469559 0.000384031576558 0)
(0.00123767317631 0.000349696372172 0)
(0.00120591474866 0.000311824206762 0)
(0.00117000763235 0.000274753120324 0)
(0.00113268369753 0.000240371549934 0)
(0.00109578095748 0.000209342116147 0)
(0.00106047726463 0.000181731945315 0)
(0.00102748555657 0.000157334596731 0)
(0.000997201077753 0.00013583328275 0)
(0.000969807454356 0.000116882213849 0)
(0.000945351262493 0.000100145553304 0)
(0.000923793612802 8.5314455405e-05 0)
(0.000905045385001 7.21129062587e-05 0)
(0.00088899100408 6.02980149095e-05 0)
(0.000875504267388 4.96577309333e-05 0)
(0.000864458700206 4.00075423943e-05 0)
(0.000855734171268 3.11869462497e-05 0)
(0.000849220969525 2.30560755081e-05 0)
(0.000844822170744 1.54926512219e-05 0)
(0.000842454862221 8.3893155546e-06 0)
(0.000842050612442 1.65134729983e-06 0)
(0.000843555446143 -4.8052638184e-06 0)
(0.000846929493385 -1.10553947002e-05 0)
(0.000852146430204 -1.71660990002e-05 0)
(0.000859192781151 -2.31976410907e-05 0)
(0.000868067112454 -2.92042692704e-05 0)
(0.000878779129254 -3.52347478562e-05 0)
(0.000891348672241 -4.13326513924e-05 0)
(0.000905804594127 -4.75364168335e-05 0)
(0.000922183484125 -5.38791424225e-05 0)
(0.000940528197894 -6.038811596e-05 0)
(0.00096088614075 -6.70840506349e-05 0)
(0.000983307243309 -7.39800048173e-05 0)
(0.00100784156152 -8.1079964338e-05 0)
(0.00103453642793 -8.83770741556e-05 0)
(0.0010634330796 -9.58515231941e-05 0)
(0.00109456269207 -0.0001034681151 0)
(0.00112794176162 -0.000111173601607 0)
(0.00116356680282 -0.000118893917343 0)
(0.00120140837064 -0.000126531535392 0)
(0.00124140448015 -0.000133963258744 0)
(0.00128345358759 -0.000141038862346 0)
(0.00132740741386 -0.000147581083454 0)
(0.00137306403183 -0.000153387491005 0)
(0.00142016178472 -0.000158234708146 0)
(0.00146837472531 -0.000161885278503 0)
(0.00151731032157 -0.00016409714635 0)
(0.00156651011991 -0.000164635303867 0)
(0.00161545386618 -0.000163284753563 0)
(0.00166356727883 -0.0001598636895 0)
(0.00171023332462 -0.000154235833369 0)
(0.00175480657483 -0.000146321146369 0)
(0.00179663008517 -0.000136104474594 0)
(0.00183505420602 -0.000123641815931 0)
(0.00186945666616 -0.000109063768848 0)
(0.00189926311767 -9.25756062804e-05 0)
(0.00192396719271 -7.44535722719e-05 0)
(0.00194314913175 -5.50371505972e-05 0)
(0.00195649202386 -3.4716667201e-05 0)
(0.00196379429628 -1.39150870426e-05 0)
(0.00196497645717 6.9361621331e-06 0)
(0.00196008015124 2.74243988007e-05 0)
(0.00194925910944 4.71797324585e-05 0)
(0.00193276399714 6.58900081029e-05 0)
(0.00191092481222 8.33043904104e-05 0)
(0.00188413425203 9.92280414167e-05 0)
(0.00185283385367 0.000113512796893 0)
(0.00181750303657 0.000126048160322 0)
(0.00177865023535 0.000136755075078 0)
(0.00173680502454 0.000145583357428 0)
(0.00169251016765 0.000152512522276 0)
(0.00164631278496 0.000157554768865 0)
(0.00159875432358 0.000160758284571 0)
(0.00155035959712 0.000162209010342 0)
(0.00150162564525 0.000162029543938 0)
(0.00145301141231 0.000160374694801 0)
(0.00140492922092 0.000157424069777 0)
(0.00135773876118 0.000153372725816 0)
(0.00131174392768 0.000148421225949 0)
(0.00126719243496 0.000142766364569 0)
(0.00122427782771 0.000136593491795 0)
(0.00118314332019 0.000130070924025 0)
(0.00114388685072 0.000123346517326 0)
(0.0011065667842 0.000116546183291 0)
(0.00107120779853 0.000109773962848 0)
(0.00103780661064 0.000103113223219 0)
(0.00100633731213 9.66285699873e-05 0)
(0.000976756179898 9.03681346206e-05 0)
(0.00094900590008 8.43659798711e-05 0)
(0.000923019195679 7.86444443353e-05 0)
(0.000898721882239 7.3216313878e-05 0)