/*--------------------------------*- C++ -*----------------------------------*\
  =========                 |
  \\      /  F ield         | OpenFOAM: The Open Source CFD Toolbox
   \\    /   O peration     | Website:  https://openfoam.org
    \\  /    A nd           | Version:  7
     \\/     M anipulation  |
\*---------------------------------------------------------------------------*/
FoamFile
{
    version     2.0;
    format      ascii;
    class       volScalarField;
    location    "2220";
    object      Ci;
}
// * * * * * * * * * * * * * * * * * * * * * * * * * * * * * * * * * * * * * //

dimensions      [0 -3 0 0 1 0 0];

internalField   nonuniform List<scalar> 
8192
(
9.99999999059
10.000000033
10.0000000998
10.0000001929
10.0000003188
10.0000004722
10.0000006457
10.0000008329
10.0000010293
10.000001231
10.0000014354
10.0000016394
10.0000018412
10.0000020381
10.0000022284
10.0000024092
10.000002579
10.0000027349
10.0000028755
10.000002998
10.0000031012
10.0000031824
10.0000032409
10.0000032741
10.0000032818
10.0000032616
10.0000032139
10.0000031365
10.0000030303
10.0000028936
10.0000027278
10.0000025315
10.0000023069
10.0000020527
10.0000017717
10.0000014631
10.0000011303
10.0000007725
10.000000394
9.99999999407
9.99999957758
9.99999914398
9.9999986986
9.99999824082
9.99999777631
9.99999730424
9.99999683054
9.99999635414
9.9999958815
9.99999541183
9.99999495293
9.99999450542
9.99999407969
9.99999367888
9.99999331668
9.99999299867
9.99999274076
9.99999254878
9.99999243772
9.99999241032
9.99999247766
9.99999263761
9.9999928972
9.9999932512
9.99999370531
9.99999425383
9.99999490207
9.99999564237
9.99999647573
9.99999738796
9.99999837243
9.99999940822
10.000000484
10.0000015773
10.0000026777
10.0000037665
10.0000048374
10.0000058769
10.0000068833
10.0000078475
10.0000087713
10.0000096484
10.0000104826
10.0000112693
10.0000120129
10.0000127097
10.0000133645
10.0000139737
10.0000145422
10.0000150666
10.0000155515
10.0000159939
10.0000163982
10.0000167616
10.0000170883
10.000017376
10.0000176289
10.000017845
10.0000180287
10.0000181784
10.0000182989
10.0000183888
10.0000184531
10.0000184907
10.0000185064
10.0000184994
10.0000184745
10.0000184306
10.0000183724
10.0000182987
10.0000182136
10.0000181159
10.0000180092
10.0000178917
10.0000177669
10.0000176323
10.0000174908
10.0000173394
10.00001718
10.000017009
10.0000168275
10.0000166314
10.0000164222
10.0000161976
10.0000159638
10.0000157281
10.0000155119
10.0000153607
10.000000002
10.0000000586
10.0000001246
10.0000002081
10.0000003154
10.0000004458
10.0000005966
10.0000007641
10.0000009443
10.0000011334
10.0000013282
10.0000015254
10.0000017227
10.0000019171
10.0000021067
10.0000022886
10.0000024611
10.0000026214
10.0000027678
10.0000028978
10.0000030101
10.0000031021
10.0000031729
10.0000032201
10.0000032435
10.0000032407
10.000003212
10.0000031555
10.0000030717
10.0000029593
10.0000028194
10.0000026508
10.0000024553
10.0000022321
10.0000019835
10.000001709
10.0000014115
10.0000010908
10.0000007503
10.0000003899
10.0000000136
9.99999962136
9.9999992177
9.99999880243
9.99999838032
9.999997951
9.99999751939
9.99999708492
9.99999665292
9.99999622307
9.99999580176
9.99999538987
9.99999499589
9.99999462277
9.9999942816
9.99999397734
9.99999372271
9.99999352299
9.9999933902
9.99999332747
9.99999334401
9.99999343964
9.99999362076
9.9999938852
9.99999423834
9.99999467757
9.99999520755
9.99999582369
9.99999652685
9.99999730704
9.99999815888
9.99999906673
10.000000021
10.0000010041
10.0000020062
10.0000030116
10.0000040131
10.0000049982
10.0000059631
10.0000068987
10.0000078039
10.0000086722
10.0000095048
10.0000102968
10.0000110504
10.000011762
10.0000124344
10.0000130645
10.0000136555
10.0000142046
10.0000147151
10.0000151845
10.0000156161
10.0000160079
10.000016363
10.0000166796
10.0000169609
10.0000172057
10.0000174174
10.0000175951
10.0000177425
10.0000178591
10.0000179489
10.0000180114
10.0000180508
10.0000180669
10.0000180636
10.0000180407
10.000018002
10.0000179471
10.0000178795
10.0000177986
10.0000177075
10.0000176053
10.0000174945
10.0000173739
10.0000172454
10.0000171071
10.0000169604
10.0000168024
10.0000166337
10.0000164511
10.0000162549
10.0000160429
10.0000158177
10.0000155879
10.0000153719
10.0000152011
10.0000000031
10.0000000704
10.0000001388
10.000000213
10.0000003011
10.0000004049
10.0000005248
10.0000006596
10.0000008083
10.0000009683
10.0000011379
10.0000013139
10.0000014944
10.0000016762
10.0000018575
10.0000020351
10.0000022076
10.0000023718
10.0000025265
10.0000026687
10.0000027974
10.0000029098
10.0000030055
10.0000030817
10.0000031384
10.0000031731
10.0000031863
10.0000031757
10.0000031424
10.0000030844
10.0000030033
10.0000028972
10.0000027686
10.0000026157
10.0000024415
10.0000022445
10.0000020282
10.0000017911
10.0000015375
10.0000012659
10.0000009809
10.0000006812
10.0000003717
10.0000000508
9.99999972384
9.99999938887
9.99999905136
9.99999870888
9.99999836719
9.99999802368
9.99999768481
9.99999734841
9.99999702239
9.99999670581
9.99999640859
9.99999613118
9.99999588515
9.99999567153
9.99999550209
9.99999537688
9.99999530645
9.99999528902
9.99999533364
9.9999954374
9.99999560888
9.99999584509
9.99999615431
9.99999653258
9.99999698575
9.99999750633
9.99999809566
9.99999874206
9.99999944313
10.000000185
10.000000964
10.0000017663
10.0000025883
10.0000034175
10.0000042513
10.0000050787
10.0000058984
10.0000067011
10.0000074867
10.0000082475
10.0000089845
10.0000096914
10.00001037
10.0000110149
10.0000116287
10.0000122069
10.0000127522
10.0000132608
10.0000137358
10.0000141737
10.000014578
10.0000149455
10.0000152799
10.0000155785
10.0000158453
10.000016078
10.0000162809
10.0000164522
10.0000165964
10.0000167119
10.0000168034
10.0000168698
10.0000169155
10.0000169394
10.0000169461
10.0000169344
10.0000169085
10.0000168672
10.0000168144
10.0000167486
10.0000166734
10.0000165868
10.000016492
10.0000163867
10.0000162733
10.0000161487
10.0000160147
10.0000158675
10.0000157087
10.0000155353
10.000015347
10.0000151497
10.0000149551
10.0000147854
10.0000000023
10.0000000792
10.0000001499
10.0000002231
10.0000003049
10.0000003966
10.0000004988
10.0000006117
10.0000007354
10.0000008689
10.0000010117
10.0000011621
10.0000013187
10.0000014795
10.0000016429
10.0000018066
10.0000019689
10.0000021274
10.0000022805
10.000002426
10.0000025626
10.000002688
10.0000028013
10.0000029005
10.000002985
10.000003053
10.0000031043
10.0000031374
10.0000031524
10.0000031483
10.0000031256
10.0000030834
10.0000030227
10.000002943
10.0000028455
10.0000027301
10.0000025983
10.00000245
10.0000022873
10.0000021101
10.0000019208
10.0000017193
10.0000015082
10.0000012872
10.0000010592
10.0000008237
10.0000005833
10.0000003375
10.0000000886
9.99999983605
9.99999958244
9.99999932728
9.99999907412
9.99999882343
9.99999858013
9.99999834614
9.99999812778
9.99999792796
9.99999775349
9.9999976071
9.99999749482
9.99999741825
9.99999738219
9.99999738738
9.99999743819
9.99999753532
9.99999768323
9.99999788221
9.99999813539
9.99999844069
9.9999987983
9.99999920328
9.99999965372
10.0000001434
10.0000006698
10.0000012267
10.0000018117
10.0000024183
10.0000030441
10.0000036828
10.0000043317
10.0000049845
10.0000056388
10.0000062887
10.000006932
10.0000075634
10.0000081815
10.0000087816
10.0000093627
10.0000099212
10.0000104566
10.0000109658
10.0000114489
10.0000119034
10.0000123297
10.000012726
10.0000130932
10.0000134299
10.0000137373
10.0000140145
10.0000142634
10.0000144833
10.0000146765
10.0000148427
10.0000149844
10.0000151018
10.0000151974
10.0000152715
10.0000153268
10.0000153635
10.0000153843
10.0000153894
10.0000153812
10.0000153599
10.0000153275
10.000015284
10.0000152312
10.0000151686
10.0000150975
10.0000150167
10.0000149268
10.000014826
10.0000147144
10.0000145905
10.0000144551
10.0000143118
10.000014167
10.0000140408
10.0000000057
10.000000092
10.0000001719
10.0000002481
10.0000003285
10.0000004147
10.0000005077
10.000000608
10.0000007159
10.0000008313
10.0000009541
10.0000010835
10.0000012187
10.0000013586
10.0000015021
10.0000016476
10.0000017938
10.0000019389
10.0000020817
10.0000022203
10.0000023535
10.0000024797
10.0000025977
10.0000027061
10.0000028039
10.00000289
10.0000029636
10.0000030239
10.0000030705
10.0000031026
10.0000031203
10.0000031232
10.0000031114
10.0000030848
10.0000030439
10.0000029889
10.0000029204
10.0000028385
10.0000027444
10.0000026381
10.000002521
10.0000023931
10.000002256
10.0000021096
10.0000019557
10.0000017938
10.0000016259
10.0000014513
10.0000012717
10.0000010863
10.000000897
10.0000007033
10.0000005074
10.0000003098
10.0000001142
9.99999992212
9.99999973883
9.99999956711
9.99999941285
9.99999927882
9.9999991703
9.99999908884
9.99999903829
9.99999901891
9.99999903366
9.99999908241
9.99999916799
9.99999928995
9.99999945015
9.9999996464
9.99999987841
10.0000001422
10.0000004364
10.0000007569
10.000001103
10.0000014714
10.0000018619
10.0000022717
10.0000027006
10.0000031458
10.0000036065
10.0000040796
10.0000045636
10.000005055
10.0000055518
10.0000060503
10.0000065484
10.0000070422
10.00000753
10.0000080081
10.0000084748
10.0000089272
10.0000093638
10.0000097821
10.0000101812
10.000010559
10.0000109151
10.000011248
10.0000115577
10.0000118431
10.0000121051
10.0000123427
10.0000125573
10.0000127486
10.0000129181
10.0000130659
10.0000131937
10.0000133019
10.0000133925
10.0000134659
10.0000135241
10.0000135676
10.0000135983
10.0000136167
10.0000136245
10.0000136221
10.000013611
10.0000135913
10.000013564
10.0000135288
10.0000134862
10.0000134349
10.000013375
10.0000133049
10.0000132256
10.000013142
10.0000130575
10.0000129936
10.0000000058
10.0000000989
10.0000001832
10.0000002652
10.0000003495
10.0000004368
10.0000005278
10.000000623
10.000000723
10.0000008281
10.0000009384
10.0000010536
10.0000011734
10.0000012971
10.0000014241
10.0000015533
10.0000016838
10.0000018143
10.000001944
10.0000020713
10.0000021955
10.0000023151
10.0000024292
10.0000025366
10.0000026366
10.0000027281
10.0000028104
10.0000028829
10.0000029449
10.0000029962
10.0000030359
10.0000030647
10.0000030811
10.0000030867
10.0000030797
10.0000030622
10.0000030323
10.0000029922
10.0000029403
10.0000028785
10.000002806
10.0000027239
10.0000026322
10.0000025315
10.0000024224
10.0000023049
10.0000021801
10.0000020476
10.0000019085
10.0000017624
10.0000016103
10.000001452
10.0000012891
10.0000011223
10.0000009543
10.0000007875
10.0000006263
10.0000004746
10.0000003378
10.0000002202
10.0000001265
10.0000000599
10.0000000229
10.0000000165
10.0000000417
10.0000000982
10.0000001861
10.0000003044
10.0000004523
10.0000006268
10.0000008252
10.0000010433
10.000001278
10.0000015258
10.0000017854
10.0000020547
10.0000023339
10.0000026222
10.0000029202
10.0000032274
10.0000035445
10.0000038707
10.0000042063
10.00000455
10.0000049014
10.0000052587
10.0000056209
10.0000059858
10.0000063519
10.0000067168
10.0000070789
10.0000074356
10.0000077855
10.000008126
10.000008456
10.0000087732
10.0000090767
10.0000093648
10.000009637
10.0000098919
10.0000101297
10.0000103494
10.0000105514
10.0000107355
10.0000109025
10.0000110523
10.0000111861
10.0000113042
10.0000114079
10.0000114978
10.0000115753
10.000011641
10.0000116964
10.000011742
10.0000117793
10.0000118087
10.0000118317
10.0000118483
10.0000118598
10.0000118658
10.0000118671
10.0000118624
10.0000118526
10.0000118351
10.0000118126
10.0000117858
10.0000117627
10.0000117572
10.0000000083
10.0000001066
10.0000001986
10.000000285
10.0000003719
10.0000004602
10.0000005504
10.000000643
10.0000007385
10.0000008374
10.0000009398
10.0000010457
10.0000011549
10.0000012671
10.0000013817
10.0000014982
10.0000016158
10.0000017338
10.0000018512
10.0000019673
10.000002081
10.0000021917
10.0000022982
10.0000024001
10.000002496
10.0000025861
10.0000026684
10.0000027442
10.0000028104
10.00000287
10.0000029182
10.0000029603
10.0000029892
10.000003013
10.000003022
10.000003027
10.0000030162
10.0000030017
10.0000029718
10.0000029373
10.000002889
10.0000028345
10.0000027685
10.0000026948
10.0000026117
10.0000025203
10.0000024207
10.000002313
10.0000021978
10.000002075
10.0000019449
10.0000018079
10.0000016646
10.0000015161
10.0000013643
10.000001212
10.0000010632
10.0000009224
10.0000007952
10.0000006869
10.0000006027
10.0000005467
10.0000005219
10.0000005298
10.0000005708
10.0000006442
10.000000749
10.0000008833
10.0000010448
10.0000012296
10.0000014334
10.0000016511
10.0000018785
10.0000021115
10.0000023476
10.000002585
10.0000028229
10.0000030606
10.0000032984
10.0000035363
10.0000037751
10.0000040151
10.000004257
10.0000045012
10.0000047482
10.0000049978
10.00000525
10.0000055044
10.0000057605
10.0000060172
10.0000062737
10.0000065288
10.0000067811
10.0000070293
10.0000072721
10.0000075081
10.0000077361
10.0000079549
10.0000081636
10.0000083614
10.0000085478
10.0000087221
10.0000088844
10.0000090344
10.0000091725
10.0000092988
10.0000094139
10.0000095183
10.0000096128
10.000009698
10.000009775
10.0000098444
10.0000099072
10.0000099643
10.0000100166
10.0000100648
10.0000101098
10.0000101521
10.0000101924
10.0000102305
10.0000102675
10.0000103013
10.0000103344
10.0000103614
10.0000103904
10.0000104114
10.0000104479
10.0000104847
10.0000000069
10.0000001081
10.0000002019
10.000000293
10.0000003849
10.0000004769
10.0000005693
10.0000006623
10.0000007566
10.0000008527
10.000000951
10.0000010514
10.000001154
10.0000012587
10.000001365
10.0000014727
10.0000015811
10.0000016897
10.0000017978
10.0000019048
10.0000020099
10.0000021128
10.000002212
10.0000023082
10.0000023987
10.0000024859
10.0000025648
10.0000026413
10.0000027062
10.0000027709
10.0000028194
10.0000028716
10.0000029018
10.000002941
10.0000029519
10.0000029773
10.0000029691
10.0000029784
10.0000029528
10.0000029431
10.0000029023
10.0000028709
10.0000028163
10.0000027628
10.0000026943
10.0000026204
10.0000025369
10.0000024454
10.000002346
10.0000022383
10.0000021229
10.0000019993
10.0000018681
10.0000017299
10.0000015861
10.0000014394
10.0000012934
10.0000011535
10.0000010255
10.0000009162
10.0000008319
10.0000007783
10.0000007592
10.0000007771
10.0000008319
10.0000009229
10.0000010475
10.0000012031
10.0000013856
10.0000015901
10.0000018109
10.000002042
10.0000022783
10.0000025155
10.0000027511
10.0000029829
10.00000321
10.0000034315
10.0000036472
10.0000038566
10.0000040604
10.0000042585
10.0000044519
10.0000046407
10.0000048261
10.0000050083
10.0000051882
10.0000053659
10.0000055419
10.0000057162
10.0000058889
10.0000060593
10.0000062275
10.0000063924
10.0000065538
10.0000067106
10.0000068624
10.0000070082
10.0000071478
10.0000072803
10.0000074057
10.0000075234
10.0000076336
10.0000077361
10.0000078314
10.0000079196
10.0000080014
10.0000080772
10.0000081477
10.0000082136
10.0000082758
10.0000083348
10.0000083918
10.0000084472
10.0000085021
10.000008557
10.0000086127
10.0000086693
10.0000087281
10.0000087878
10.0000088509
10.0000089128
10.0000089798
10.00000904
10.0000091123
10.0000091672
10.0000092588
10.0000093173
10.000000009
10.0000001139
10.0000002134
10.0000003074
10.0000004012
10.0000004948
10.0000005882
10.0000006815
10.0000007752
10.0000008698
10.0000009655
10.0000010625
10.0000011609
10.0000012607
10.0000013614
10.0000014631
10.000001565
10.0000016671
10.0000017683
10.000001869
10.0000019673
10.0000020646
10.0000021575
10.0000022498
10.0000023345
10.0000024205
10.0000024939
10.0000025734
10.0000026319
10.0000027055
10.0000027452
10.0000028145
10.0000028312
10.0000028981
10.000002889
10.0000029535
10.0000029187
10.0000029767
10.0000029212
10.0000029638
10.0000028969
10.0000029127
10.0000028435
10.0000028253
10.0000027567
10.000002706
10.0000026332
10.0000025582
10.0000024738
10.000002381
10.0000022805
10.000002171
10.0000020525
10.0000019254
10.0000017901
10.0000016491
10.0000015053
10.0000013644
10.0000012326
10.0000011176
10.0000010272
10.0000009685
10.0000009469
10.0000009657
10.0000010253
10.0000011242
10.0000012592
10.0000014262
10.00000162
10.0000018348
10.000002064
10.0000023014
10.0000025416
10.0000027808
10.0000030163
10.0000032466
10.0000034705
10.0000036871
10.0000038956
10.0000040955
10.0000042863
10.000004468
10.0000046405
10.0000048044
10.0000049598
10.0000051074
10.0000052477
10.0000053814
10.0000055089
10.000005631
10.000005748
10.0000058602
10.0000059678
10.0000060709
10.0000061693
10.0000062632
10.0000063522
10.0000064363
10.0000065153
10.0000065893
10.0000066581
10.000006722
10.0000067811
10.0000068358
10.0000068865
10.0000069338
10.0000069783
10.0000070206
10.0000070616
10.000007102
10.0000071426
10.0000071843
10.0000072279
10.000007274
10.0000073234
10.0000073767
10.0000074347
10.0000074971
10.0000075655
10.0000076376
10.0000077175
10.0000077973
10.0000078888
10.0000079702
10.0000080764
10.0000081509
10.00000829
10.000008352
10.0000000073
10.0000001144
10.000000215
10.0000003129
10.000000411
10.0000005082
10.0000006043
10.0000006994
10.0000007941
10.0000008887
10.0000009836
10.0000010792
10.0000011754
10.0000012723
10.0000013698
10.0000014678
10.0000015655
10.0000016636
10.0000017603
10.0000018571
10.0000019506
10.0000020452
10.000002133
10.0000022245
10.0000023033
10.0000023924
10.0000024575
10.0000025466
10.0000025916
10.0000026858
10.0000027015
10.0000028091
10.0000027842
10.0000029151
10.0000028386
10.0000030001
10.0000028669
10.0000030562
10.0000028755
10.0000030722
10.0000028714
10.0000030387
10.0000028564
10.0000029566
10.0000028206
10.0000028396
10.0000027476
10.0000027033
10.0000026282
10.00000255
10.0000024652
10.0000023677
10.0000022615
10.0000021433
10.0000020137
10.0000018739
10.0000017268
10.0000015779
10.0000014341
10.0000013052
10.0000012006
10.0000011308
10.0000011029
10.0000011225
10.0000011898
10.0000013032
10.0000014565
10.0000016439
10.0000018569
10.0000020881
10.0000023291
10.0000025729
10.0000028144
10.0000030506
10.0000032798
10.0000035015
10.0000037153
10.0000039207
10.0000041175
10.0000043049
10.0000044827
10.0000046502
10.0000048074
10.0000049539
10.0000050903
10.0000052163
10.0000053329
10.0000054401
10.0000055385
10.0000056286
10.0000057109
10.000005786
10.0000058542
10.000005916
10.0000059717
10.0000060216
10.0000060659
10.0000061049
10.0000061389
10.0000061682
10.0000061933
10.0000062145
10.0000062325
10.0000062479
10.0000062614
10.0000062738
10.000006286
10.0000062987
10.0000063129
10.0000063296
10.0000063497
10.0000063739
10.0000064033
10.0000064384
10.0000064801
10.0000065286
10.0000065852
10.0000066486
10.0000067217
10.0000068
10.0000068904
10.0000069802
10.0000070888
10.0000071818
10.0000073132
10.0000073956
10.0000075724
10.000007626
10.0000000094
10.0000001203
10.0000002263
10.0000003265
10.0000004262
10.000000525
10.0000006224
10.0000007186
10.0000008139
10.0000009088
10.0000010035
10.0000010983
10.0000011933
10.0000012887
10.0000013841
10.00000148
10.000001575
10.0000016709
10.0000017643
10.0000018595
10.0000019491
10.0000020434
10.0000021261
10.0000022206
10.0000022915
10.0000023896
10.0000024409
10.0000025502
10.0000025687
10.0000027038
10.0000026689
10.0000028531
10.0000027349
10.0000030008
10.0000027629
10.0000031448
10.0000027559
10.0000032728
10.00000273
10.0000033577
10.0000027132
10.0000033646
10.0000027322
10.0000032742
10.0000027848
10.0000031087
10.0000028271
10.0000029251
10.0000028032
10.0000027637
10.000002695
10.0000026078
10.0000025213
10.0000024132
10.0000022927
10.000002157
10.0000020084
10.0000018517
10.0000016948
10.0000015488
10.000001426
10.0000013392
10.0000012994
10.0000013142
10.0000013851
10.0000015087
10.0000016772
10.0000018808
10.0000021091
10.000002352
10.0000025999
10.0000028459
10.0000030849
10.0000033144
10.0000035337
10.0000037433
10.0000039435
10.0000041348
10.0000043171
10.0000044901
10.0000046536
10.0000048072
10.0000049503
10.0000050826
10.000005204
10.0000053144
10.000005414
10.0000055033
10.0000055827
10.0000056528
10.0000057134
10.0000057653
10.0000058088
10.0000058444
10.0000058727
10.000005894
10.0000059089
10.0000059179
10.0000059214
10.0000059202
10.0000059149
10.0000059063
10.0000058952
10.0000058824
10.000005869
10.0000058559
10.0000058442
10.0000058349
10.0000058291
10.0000058279
10.0000058322
10.000005843
10.0000058612
10.0000058874
10.0000059227
10.0000059669
10.0000060215
10.0000060847
10.0000061602
10.0000062415
10.0000063387
10.0000064336
10.0000065537
10.0000066517
10.0000068008
10.0000068838
10.0000070882
10.0000071279
10.0000000079
10.0000001211
10.0000002283
10.0000003323
10.000000436
10.0000005383
10.0000006388
10.0000007374
10.0000008345
10.0000009307
10.0000010261
10.0000011213
10.0000012162
10.0000013113
10.0000014058
10.000001501
10.0000015946
10.0000016899
10.0000017811
10.0000018765
10.000001963
10.0000020597
10.0000021373
10.0000022382
10.0000022997
10.0000024126
10.0000024446
10.0000025853
10.0000025639
10.0000027624
10.0000026464
10.0000029541
10.0000026771
10.0000031736
10.0000026409
10.0000034307
10.0000025314
10.0000037176
10.0000023685
10.0000039899
10.0000022155
10.0000041568
10.0000021725
10.0000041141
10.0000023163
10.0000038307
10.0000026071
10.0000034227
10.0000028705
10.0000030813
10.0000029445
10.000002878
10.0000028277
10.0000027105
10.0000026044
10.0000024666
10.0000023082
10.0000021338
10.0000019524
10.0000017773
10.0000016218
10.0000015064
10.0000014492
10.0000014626
10.0000015457
10.0000016924
10.0000018908
10.0000021285
10.0000023906
10.0000026633
10.0000029341
10.0000031936
10.0000034365
10.0000036612
10.0000038691
10.000004062
10.0000042424
10.0000044117
10.000004571
10.0000047207
10.0000048613
10.0000049925
10.0000051143
10.0000052261
10.0000053278
10.0000054188
10.0000054996
10.0000055699
10.0000056306
10.0000056817
10.0000057242
10.000005758
10.0000057833
10.0000058003
10.0000058096
10.0000058117
10.0000058072
10.0000057965
10.0000057804
10.0000057596
10.000005735
10.0000057074
10.0000056778
10.0000056472
10.0000056169
10.0000055879
10.0000055613
10.0000055385
10.0000055206
10.0000055086
10.0000055037
10.0000055068
10.000005519
10.0000055406
10.0000055729
10.0000056154
10.00000567
10.000005734
10.0000058122
10.0000058959
10.0000059984
10.0000060963
10.0000062246
10.0000063244
10.0000064858
10.000006566
10.0000067887
10.0000068146
10.00000001
10.0000001271
10.0000002395
10.0000003458
10.0000004511
10.0000005551
10.0000006572
10.0000007574
10.000000856
10.0000009535
10.0000010498
10.0000011458
10.0000012409
10.0000013364
10.0000014306
10.0000015261
10.0000016188
10.0000017145
10.0000018043
10.0000019012
10.0000019851
10.0000020853
10.0000021581
10.0000022672
10.0000023189
10.0000024488
10.0000024603
10.000002636
10.0000025708
10.0000028408
10.0000026315
10.0000030847
10.0000026131
10.0000034009
10.0000024755
10.0000038303
10.000002177
10.0000044025
10.0000017049
10.0000050914
10.0000011311
10.000005754
10.000000668
10.0000061042
10.0000006325
10.000005845
10.0000012192
10.000004966
10.0000022016
10.0000039211
10.0000029864
10.000003258
10.0000031967
10.0000030143
10.0000029955
10.0000028255
10.0000026617
10.0000024738
10.0000022725
10.0000020577
10.0000018506
10.0000017024
10.0000016421
10.0000016526
10.0000017028
10.0000017866
10.0000019242
10.0000021348
10.0000024167
10.0000027457
10.0000030888
10.0000034162
10.0000037107
10.000003967
10.0000041883
10.0000043809
10.0000045512
10.0000047042
10.0000048434
10.0000049712
10.000005089
10.0000051973
10.0000052963
10.0000053858
10.0000054655
10.0000055354
10.0000055956
10.0000056462
10.0000056877
10.0000057205
10.0000057452
10.0000057621
10.0000057721
10.0000057745
10.0000057693
10.0000057573
10.0000057387
10.0000057144
10.0000056848
10.000005651
10.0000056137
10.0000055739
10.0000055328
10.0000054914
10.0000054509
10.0000054127
10.0000053779
10.0000053478
10.0000053237
10.0000053066
10.0000052978
10.0000052981
10.0000053086
10.0000053295
10.0000053622
10.0000054058
10.0000054626
10.0000055289
10.0000056108
10.0000056974
10.0000058048
10.000005905
10.0000060396
10.0000061398
10.0000063096
10.000006386
10.0000066198
10.0000066337
10.0000000087
10.0000001282
10.0000002421
10.000000352
10.000000461
10.0000005684
10.0000006736
10.0000007766
10.0000008776
10.0000009771
10.0000010752
10.0000011727
10.000001269
10.0000013656
10.0000014603
10.0000015568
10.0000016496
10.0000017466
10.000001836
10.0000019349
10.0000020179
10.0000021215
10.0000021923
10.0000023076
10.0000023548
10.0000024963
10.0000024974
10.0000026956
10.0000026063
10.0000029223
10.0000026563
10.0000032087
10.0000026025
10.000003612
10.0000023708
10.0000042215
10.0000018538
10.0000051533
10.0000009331
10.0000065002
9.99999956499
10.0000081996
9.99999795924
10.0000098369
9.99999674917
10.000010577
9.99999686298
10.0000095955
9.9999987577
10.0000070631
10.0000015023
10.000004516
10.0000033188
10.000003305
10.0000035736
10.0000030953
10.0000030473
10.0000028532
10.0000025905
10.0000022328
10.000001968
10.0000019532
10.0000019577
10.0000015644
10.0000006217
9.99999943819
9.99999853156
9.99999828224
9.99999875216
9.99999973953
10.0000009381
10.0000020859
10.000003036
10.0000037496
10.0000042556
10.0000046065
10.000004853
10.0000050327
10.0000051715
10.0000052852
10.0000053837
10.0000054721
10.0000055526
10.0000056248
10.0000056879
10.0000057401
10.000005781
10.0000058101
10.0000058283
10.0000058363
10.0000058356
10.0000058274
10.0000058127
10.0000057931
10.000005768
10.0000057374
10.000005702
10.0000056622
10.0000056187
10.0000055721
10.0000055234
10.0000054734
10.0000054233
10.0000053741
10.0000053271
10.0000052835
10.0000052445
10.0000052113
10.0000051853
10.0000051673
10.0000051586
10.0000051599
10.0000051723
10.0000051957
10.0000052319
10.000005279
10.0000053404
10.0000054104
10.0000054975
10.0000055874
10.0000057004
10.0000058024
10.0000059429
10.0000060421
10.0000062182
10.0000062893
10.0000065295
10.0000065312
10.0000000106
10.0000001342
10.0000002529
10.0000003649
10.0000004754
10.0000005844
10.0000006913
10.0000007963
10.0000008992
10.0000010006
10.0000011004
10.0000011996
10.0000012972
10.0000013952
10.000001491
10.0000015888
10.0000016824
10.0000017807
10.000001871
10.0000019711
10.0000020554
10.0000021604
10.0000022335
10.0000023496
10.0000024013
10.000002542
10.000002552
10.0000027454
10.0000026726
10.0000029767
10.0000027376
10.0000032711
10.0000026971
10.0000036973
10.0000024558
10.0000043834
10.0000018428
10.0000055467
10.0000005866
10.0000074991
9.99999835293
10.0000105357
9.99999495861
10.0000145881
9.99999087697
10.0000186046
9.99998783997
10.0000202324
9.99998849797
10.0000171849
9.99999388223
10.0000104597
10.0000006916
10.0000047582
10.0000042721
10.0000028236
10.0000040188
10.0000033381
10.0000026335
10.0000021209
10.0000029405
10.0000038358
10.0000009341
9.99999146452
9.99997678343
9.99996177213
9.99995157943
9.99994893759
9.9999534756
9.99996268786
9.99997351213
9.99998353531
9.99999148555
9.9999971027
10.0000007297
10.0000029156
10.0000041701
10.0000048673
10.0000052458
10.000005444
10.0000055396
10.0000055782
10.0000055887
10.0000055907
10.0000055961
10.0000056106
10.0000056341
10.0000056634
10.0000056934
10.0000057193
10.0000057371
10.0000057447
10.0000057414
10.0000057274
10.0000057044
10.0000056727
10.0000056334
10.0000055881
10.0000055384
10.0000054857
10.0000054313
10.0000053765
10.0000053224
10.0000052704
10.0000052216
10.000005177
10.0000051382
10.0000051059
10.0000050816
10.0000050659
10.0000050605
10.0000050651
10.000005082
10.0000051093
10.0000051509
10.0000052017
10.0000052692
10.0000053423
10.0000054358
10.0000055266
10.0000056462
10.0000057455
10.0000058925
10.0000059837
10.0000061659
10.0000062213
10.0000064658
10.0000064408
10.0000000096
10.0000001356
10.0000002559
10.0000003711
10.0000004849
10.000000597
10.0000007068
10.0000008145
10.00000092
10.000001024
10.000001126
10.0000012274
10.000001327
10.0000014269
10.0000015245
10.0000016238
10.0000017194
10.0000018188
10.0000019116
10.0000020124
10.0000021006
10.0000022048
10.0000022848
10.0000023968
10.0000024618
10.0000025907
10.0000026272
10.0000027918
10.0000027722
10.0000030121
10.0000028791
10.0000032779
10.0000029097
10.0000036454
10.000002782
10.0000042338
10.0000023233
10.0000052881
10.000001188
10.0000072753
9.99999875694
10.0000109677
9.99999411921
10.0000173091
9.99998649134
10.0000265652
9.99997663222
10.0000363636
9.99996901082
10.0000401818
9.99997119776
10.0000316264
9.99998528014
10.0000151024
10.0000006524
10.0000029234
10.000007693
10.000001179
10.0000010351
10.0000055911
10.0000129273
9.99999846679
9.99993388886
9.99981574243
9.99967331941
9.99955137659
9.99948463985
9.999484775
9.99954118975
9.99963069435
9.9997286774
9.99981684389
9.99988595397
9.99993452961
9.99996573142
9.9999843357
9.99999480026
10.0000004678
10.0000035136
10.0000051995
10.0000061836
10.0000067709
10.0000070918
10.0000072058
10.0000071569
10.0000069903
10.0000067541
10.000006492
10.0000062387
10.0000060163
10.0000058356
10.000005698
10.000005599
10.000005531
10.0000054848
10.0000054536
10.0000054284
10.0000054041
10.0000053777
10.0000053473
10.0000053127
10.0000052741
10.0000052328
10.0000051899
10.0000051477
10.0000051073
10.0000050713
10.0000050403
10.0000050176
10.0000050021
10.0000049986
10.0000050032
10.0000050233
10.0000050503
10.0000050969
10.0000051461
10.0000052204
10.0000052883
10.0000053902
10.0000054691
10.0000055982
10.0000056744
10.0000058313
10.0000058818
10.0000060731
10.0000060621
10.0000063118
10.0000061842
10.0000000113
10.0000001412
10.0000002659
10.000000383
10.000000498
10.0000006115
10.0000007229
10.0000008325
10.0000009401
10.0000010462
10.0000011504
10.0000012539
10.0000013556
10.0000014573
10.0000015571
10.0000016579
10.0000017559
10.0000018565
10.0000019525
10.0000020535
10.0000021466
10.0000022493
10.0000023377
10.0000024442
10.0000025248
10.0000026394
10.000002706
10.0000028374
10.0000028777
10.0000030441
10.0000030321
10.0000032722
10.0000031513
10.0000035505
10.0000031929
10.0000039457
10.0000030548
10.0000046157
10.0000024922
10.0000059321
10.0000009365
10.0000087397
9.99999715069
10.0000147702
9.99998882976
10.0000268346
9.99997301983
10.0000471683
9.99994979854
10.0000711809
9.99993046421
10.0000803592
9.999937113
10.0000577193
9.99997052975
10.0000211111
10.0000073957
9.99998329299
10.0000167873
10.0000488605
9.99999679771
9.9996631494