/*--------------------------------*- C++ -*----------------------------------*\
  =========                 |
  \\      /  F ield         | OpenFOAM: The Open Source CFD Toolbox
   \\    /   O peration     | Website:  https://openfoam.org
    \\  /    A nd           | Version:  7
     \\/     M anipulation  |
\*---------------------------------------------------------------------------*/
FoamFile
{
    version     2.0;
    format      ascii;
    class       volScalarField;
    location    "2220";
    object      p;
}
// * * * * * * * * * * * * * * * * * * * * * * * * * * * * * * * * * * * * * //

dimensions      [0 2 -2 0 0 0 0];

internalField   nonuniform List<scalar> 
8192
(
0.00059199500582
0.000420447234408
0.000334836573039
0.000290730665016
0.000265714425877
0.000250486039202
0.000240626723778
0.000233891455921
0.000229073118266
0.000225487609164
0.000222727583879
0.00022053918722
0.000218757621151
0.000217272009003
0.000216005428244
0.000214903105182
0.000213925170071
0.000213042054825
0.000212231475674
0.000211476397661
0.000210763625507
0.000210082805092
0.000209425700423
0.0002087856595
0.000208157211739
0.000207535758411
0.000206917329162
0.000206298385719
0.000205675658421
0.000205046005911
0.000204406290152
0.000203753260035
0.000203083438108
0.000202393006392
0.000201677687385
0.000200932617449
0.000200152209882
0.000199330006306
0.000198458515514
0.000197529041039
0.000196531500151
0.000195454240569
0.000194283864191
0.000193005072633
0.000191600554185
0.000190050938694
0.000188334851913
0.000186429106205
0.000184309064958
0.000181949215423
0.000179323973322
0.000176408725541
0.000173181090893
0.000169622350165
0.000165718964695
0.000161464076595
0.000156858861369
0.000151913591955
0.000146648269134
0.000141092687694
0.000135285844107
0.000129274662098
0.000123112107815
0.000116854872997
0.000110560887059
0.000104286954389
9.80867819254e-05
9.2009552398e-05
8.60990655902e-05
8.03933624751e-05
7.49246696221e-05
6.97194948631e-05
6.4798745e-05
6.01778028962e-05
5.58665642511e-05
5.18694836603e-05
4.81857003947e-05
4.48093112777e-05
4.17298300183e-05
3.89328353816e-05
3.64007709391e-05
3.41138329306e-05
3.20508700112e-05
3.01902247874e-05
2.85104623327e-05
2.69909542128e-05
2.56123070618e-05
2.43566434774e-05
2.32077534398e-05
2.21511414461e-05
2.11739946344e-05
2.02650963703e-05
1.94147050946e-05
1.86144150674e-05
1.7857010518e-05
1.71363221057e-05
1.64470906838e-05
1.57848420496e-05
1.51457737773e-05
1.45266549899e-05
1.39247382743e-05
1.33376833567e-05
1.27634910411e-05
1.22004466531e-05
1.16470713858e-05
1.11020808156e-05
1.05643491293e-05
1.00328785114e-05
9.50677246548e-06
8.98521275551e-06
8.46743901906e-06
7.95273103687e-06
7.44039309263e-06
6.92974089721e-06
6.420091221e-06
5.91075576962e-06
5.40104113629e-06
4.89025912676e-06
4.37775397515e-06
3.86295892936e-06
3.34550353463e-06
2.82541189671e-06
2.30346771012e-06
1.78189827217e-06
1.26570000607e-06
7.65353449777e-07
3.03496355843e-07
-6.89893176344e-09
0.000443079308848
0.000379567440688
0.000329883250933
0.000297238446258
0.000275323860153
0.00026014840888
0.000249333053566
0.000241412806369
0.000235462432059
0.000230883613038
0.000227280367959
0.000224384592423
0.000222010731038
0.000220027667538
0.000218340952145
0.000216881337929
0.000215597235506
0.000214449646254
0.000213408692797
0.000212451198226
0.00021155896647
0.000210717539744
0.000209915285824
0.000209142716899
0.000208391972994
0.000207656423754
0.000206930355834
0.000206208722717
0.000205486939022
0.000204760707482
0.000204025869227
0.000203278269068
0.000202513629796
0.000201727430927
0.0002009147879
0.000200070328855
0.000199188066567
0.000198261264378
0.000197282295653
0.000196242498149
0.0001951320261
0.000193939705697
0.000192652902278
0.000191257411774
0.000189737392828
0.000188075361144
0.000186252271462
0.000184247716226
0.000182040270071
0.000179608006443
0.000176929203261
0.000173983240161
0.00017075166847
0.000167219411296
0.000163376025613
0.000159216937348
0.000154744543851
0.00014996906988
0.000144909061229
0.000139591411567
0.00013405084689
0.00012832884804
0.000122472069136
0.000116530396648
0.000110554861936
0.000104595648304
9.87004162853e-05
9.2913072938e-05
8.72730020253e-05
8.18146913339e-05
7.65676248815e-05
7.15563055737e-05
6.68003073578e-05
6.23143086004e-05
5.81081078426e-05
5.41866609822e-05
5.05501950948e-05
4.71944509454e-05
4.41110837918e-05
4.12882220193e-05
3.87111516159e-05
3.63630734795e-05
3.42258709653e-05
3.22808302214e-05
3.05092686493e-05
2.88930454644e-05
2.74149449769e-05
2.60589379954e-05
2.48103353456e-05
2.3655853056e-05
2.25836092339e-05
2.15830721183e-05
2.06449754847e-05
1.97612150896e-05
1.89247360433e-05
1.81294188223e-05
1.73699686616e-05
1.66418118254e-05
1.59410002611e-05
1.52641257229e-05
1.46082431772e-05
1.39708034177e-05
1.33495939849e-05
1.27426878843e-05
1.21483990045e-05
1.15652436665e-05
1.09919072612e-05
1.04272155135e-05
9.87010949854e-06
9.31962414185e-06
8.77486957196e-06
8.23501534038e-06
7.69927724452e-06
7.16690724711e-06
6.63718690037e-06
6.10942573289e-06
5.58296645022e-06
5.05720059678e-06
4.53159993111e-06
4.00577251148e-06
3.47955729796e-06
2.95318015017e-06
2.42750800384e-06
1.90446347801e-06
1.38770592272e-06
8.83798671826e-07
4.03753805078e-07
3.72472904832e-08
0.000360126407149
0.000337461552955
0.000311474592015
0.000290244163253
0.000274131383803
0.000261826689359
0.000252310403451
0.000244854828017
0.000238937956051
0.000234180639064
0.000230304653115
0.000227104035657
0.000224425031592
0.000222151874849
0.000220196633191
0.000218491915988
0.00021698560886
0.000215637047464
0.000214414216258
0.000213291680614
0.000212249046368
0.000211269801364
0.000210340435382
0.000209449764615
0.00020858840719
0.000207748371119
0.000206922725998
0.000206105337799
0.000205290649172
0.000204473495
0.000203648944152
0.000202812158748
0.000201958265395
0.000201082234086
0.000200178760815
0.000199242151323
0.000198266203606
0.000197244088257
0.000196168226076
0.000195030164224
0.000193820453151
0.000192528529129
0.000191142609099
0.000189649608288
0.000188035093906
0.000186283292861
0.000184377174407
0.000182298632311
0.0001800287912
0.000177548460218
0.000174838749072
0.000171881849779
0.000168661968308
0.000165166369653
0.000161386476848
0.000157318947003
0.000152966633451
0.000148339337053
0.000143454246284
0.000138335972316
0.000133016105207
0.000127532264778
0.000121926690253
0.000116244496577
0.000110531792481
0.000104833883538
9.91937806015e-05
9.36511256283e-05
8.82415385652e-05
8.29963233079e-05
7.7942397181e-05
7.31023170763e-05
6.84943129875e-05
6.41322917784e-05
6.00258188259e-05
5.61801188863e-05
5.25961502822e-05
4.92708022548e-05
4.619724251e-05
4.33654131459e-05
4.0762643017e-05
3.8374325907e-05
3.61846059777e-05
3.41770185634e-05
3.23350470433e-05
3.06425743908e-05
2.90842226664e-05
2.76455867274e-05
2.63133750498e-05
2.50754750742e-05
2.39209601243e-05
2.28400544762e-05
2.18240699124e-05
2.08653252589e-05
1.99570569587e-05
1.90933272645e-05
1.82689339339e-05
1.74793246051e-05
1.67205171317e-05
1.59890270869e-05
1.52818023287e-05
1.45961648568e-05
1.39297592315e-05
1.32805073863e-05
1.26465689067e-05
1.20263065136e-05
1.14182558385e-05
1.08210992902e-05
1.0233643218e-05
9.65479831513e-06
9.08356265858e-06
8.51900754696e-06
7.96026581893e-06
7.40652316909e-06
6.85701261799e-06
6.31101328714e-06
5.76785451272e-06
5.22692766135e-06
4.68770838862e-06
4.14979411103e-06
3.61296288219e-06
3.07726348261e-06
2.54315052763e-06
2.01168574382e-06
1.48483327286e-06
9.65817199024e-07
4.58869511952e-07
4.9396033683e-08
0.000315569534677
0.000307183495266
0.000292994065247
0.000279205096603
0.000267779854024
0.000258507401653
0.00025093503464
0.000244694591559
0.000239508012248
0.000235162779149
0.000231493142402
0.000228368015114
0.000225682903766
0.000223354138761
0.000221314514994
0.000219509894956
0.000217896526509
0.000216438916089
0.00021510814115
0.000213880511163
0.000212736504478
0.000211659922834
0.000210637216906
0.000209656946042
0.000208709343002
0.000207785960796
0.000206879383494
0.000205982987445
0.000205090738893
0.000204197022179
0.000203296491602
0.000202383938689
0.000201454171135
0.000200501899678
0.000199521629659
0.000198507554902
0.000197453451944
0.000196352573568
0.00019519754111
0.000193980236263
0.00019269169408
0.000191322000778
0.000189860201744
0.000188294228111
0.000186610853114
0.000184795693459
0.000182833274378
0.000180707180749
0.000178400318174
0.000175895307228
0.000173175028228
0.000170223322963
0.000167025842225
0.00016357100706
0.000159851029449
0.000155862920814
0.000151609405006
0.000147099646651
0.000142349700806
0.000137382588731
0.000132227916028
0.00012692099072
0.000121501472862
0.000116011679263
0.000110494744956
0.000104992873838
9.95459289298e-05
9.41904713396e-05
8.89592327966e-05
8.38809467669e-05
7.8980373714e-05
7.42783811055e-05
6.97919906318e-05
6.55343635855e-05
6.15147430026e-05
5.77384037634e-05
5.42066741074e-05
5.09170845015e-05
4.78636741444e-05
4.50374519915e-05
4.24269770975e-05
4.00190031185e-05
3.77991260547e-05
3.57523827977e-05
3.38637637092e-05
3.21186210408e-05
3.05029703466e-05
2.90036935887e-05
2.76086585154e-05
2.63067715603e-05
2.50879806972e-05
2.39432430976e-05
2.28644694762e-05
2.18444547173e-05
2.08768016252e-05
1.99558429767e-05
1.90765651183e-05
1.82345354559e-05
1.74258349635e-05
1.66469965008e-05
1.58949489799e-05
1.516696742e-05
1.44606284501e-05
1.37737709992e-05
1.31044615787e-05
1.2450963828e-05
1.1811711735e-05
1.11852862473e-05
1.0570394769e-05
9.96585336464e-06
9.3705712933e-06
8.78353784352e-06
8.20381127391e-06
7.63051003939e-06
7.06280637649e-06
6.49992275801e-06
5.94113172514e-06
5.38576018378e-06
4.83319947692e-06
4.28292348655e-06
3.73451786648e-06
3.18772547384e-06
2.64251522393e-06
2.0991829643e-06
1.55847678258e-06
1.02161921698e-06
4.895241557e-07
5.14044658679e-08
0.00028794865226
0.000285980290115
0.000278181212033
0.000268988712009
0.000260707802127
0.000253675867858
0.000247735961531
0.000242682797295
0.000238348056988
0.000234602071985
0.000231343573823
0.000228491307541
0.000225978640722
0.000223750189255
0.000221759586145
0.000219967876573
0.000218342272825
0.000216855139206
0.000215483143019
0.000214206537337
0.000213008553822
0.000211874889345
0.000210793272582
0.000209753098537
0.000208745120147
0.000207761187514
0.000206794026471
0.000205837049827
0.00020488419193
0.000203929765377
0.00020296833562
0.00020199460626
0.000201003313376
0.000199989126102
0.000198946550985
0.000197869838241
0.00019675288824
0.000195589157226
0.000194371561629
0.000193092381234
0.000191743162271
0.000190314622975
0.000188796565767
0.00018717780277
0.000185446104171
0.000183588182928
0.000181589733241
0.000179435544683
0.00017710971684
0.000174596000194
0.00017187828489
0.000168941248946
0.00016577115983
0.000162356800762
0.000158690469224
0.000154768977024
0.000150594570995
0.000146175689136
0.000141527459981
0.000136671842523
0.000131637303502
0.000126457965221
0.000121172240671
0.00011582108369
0.000110446078494
0.000105087630308
9.97835647577e-05
9.45682525357e-05
8.94722184991e-05
8.45221336148e-05
7.97409740292e-05
7.51481832951e-05
7.0759747721e-05
6.65881652524e-05
6.26423406226e-05
5.89274736719e-05
5.54450198409e-05
5.21927909302e-05
4.91652324732e-05
4.63538731613e-05
4.37479040678e-05
4.13348231698e-05
3.91010767107e-05
3.70326412319e-05
3.51155101022e-05
3.3336069703e-05
3.16813670092e-05
3.01392813049e-05
2.86986175623e-05
2.73491401028e-05
2.60815632647e-05
2.48875132175e-05
2.37594717817e-05
2.26907105179e-05
2.16752207799e-05
2.07076437842e-05
1.97832031467e-05
1.88976415243e-05
1.80471620854e-05
1.72283752372e-05
1.64382505238e-05
1.56740735902e-05
1.49334078023e-05
1.42140602303e-05
1.35140514994e-05
1.28315891908e-05
1.21650443184e-05
1.15129306106e-05
1.08738861902e-05
1.02466574572e-05
9.63008485694e-06
9.02309042888e-06
8.42466692482e-06
7.83386850895e-06
7.24980296739e-06
6.67162561826e-06
6.09853509089e-06
5.52977151743e-06
4.96461785056e-06
4.40240571186e-06
3.84252780749e-06
3.28446004562e-06
2.72779631088e-06
2.17229280647e-06
1.61788542055e-06
1.06451274178e-06
5.11230728758e-07
5.18018705816e-08
0.000269600509684
0.000270495067623
0.000266451758283
0.000260316479752
0.000254221214574
0.000248787786431
0.000244066667668
0.000239962870479
0.000236369707508
0.000233198610753
0.000230380146717
0.000227859458955
0.000225592068621
0.000223540974712
0.000221674803637
0.00021996662689
0.000218393166875
0.000216934221374
0.000215572213302
0.000214291817221
0.000213079638084
0.000211923929832
0.000210814347035
0.000209741725317
0.000208697887219
0.000207675470571
0.000206667776901
0.000205668636704
0.000204672286752
0.000203673260849
0.000202666292186
0.000201646221173
0.000200607908805
0.0001995461537
0.000198455611091
0.000197330712338
0.000196165583619
0.000194953962831
0.000193689113952
0.000192363738713
0.000190969886033
0.000189498860815
0.000187941135115
0.000186286266957
0.000184522834901
0.000182638400525
0.000180619515587
0.000178451796156
0.000176120090662
0.000173608771733
0.000170902179499
0.000167985234805
0.000164844222127
0.00016146771629
0.000157847599424
0.000153980094411
0.000149866732912
0.000145515175441
0.000140939792727
0.000136161894557
0.000131209473489
0.000126116359767
0.000120920784098
0.000115663486467
0.000110385632846
0.000105126849797
9.99237711697e-05
9.48092346e-05
8.98120529901e-05
8.49572113971e-05
8.02661971827e-05
7.57572650059e-05
7.14455453106e-05
6.73429901872e-05
6.3458207842e-05
5.9796273532e-05
5.63586177525e-05
5.31430772852e-05
5.01441540508e-05
4.73534745148e-05
4.47603960028e-05
4.2352680596e-05
4.01171559267e-05
3.80403002986e-05
3.61087158988e-05
3.43094794017e-05
3.26303776695e-05
3.10600468013e-05
2.95880361772e-05
2.82048184029e-05
2.69017627315e-05
2.56710858406e-05
2.45057900222e-05
2.33995959336e-05
2.23468745328e-05
2.13425812241e-05
2.03821938713e-05
1.94616556361e-05
1.85773229154e-05
1.77259184332e-05
1.69044892055e-05
1.61103691015e-05
1.53411455469e-05
1.45946300164e-05
1.38688318504e-05
1.31619350671e-05
1.24722777545e-05
1.17983337711e-05
1.11386964053e-05
1.04920637856e-05
9.85722575701e-06
9.23305207712e-06
8.61848171491e-06
8.01251317512e-06
7.41419571999e-06
6.8226215272e-06
6.23691883092e-06
5.65624634977e-06
5.07978945175e-06
4.50675891554e-06
3.93639331448e-06
3.36796576517e-06
2.80079266308e-06
2.23423011571e-06
1.66760492697e-06
1.09992603262e-06
5.29065171872e-07
5.25491825319e-08
0.000256721435056
0.000258844357179
0.000257045044003
0.000253025449796
0.000248536055808
0.000244293821781
0.000240488186992
0.000237113623227
0.00023411283731
0.000231425462859
0.00022900053376
0.000226797295155
0.000224783154304
0.000222931512752
0.000221220121212
0.000219629958258
0.000218144491263
0.000216749184711
0.000215431159402
0.00021417894132
0.000212982263846
0.000211831902758
0.000210719532754
0.000209637599421
0.000208579203276
0.000207537993923
0.000206508073855
0.00020548390835
0.000204460240723
0.000203432014535
0.000202394302156
0.00020134223472
0.000200270934415
0.000199175447943
0.000198050679965
0.000196891325436
0.000195691799732
0.00019444616558
0.000193148055928
0.000191790592189
0.000190366297738
0.000188867007332
0.000187283774388
0.000185606780001
0.000183825250458
0.000181927394173
0.000179900374369
0.000177730340537
0.00017540254856
0.000172901604744
0.000170211869369
0.000167318047119
0.000164205971603
0.000160863560426
0.000157281883464
0.000153456263029
0.000149387319845
0.000145081885935
0.000140553698702
0.000135823750086
0.000130920116121
0.00012587710749
0.000120733707846
0.000115531455708
0.000110312084791
0.000105115301354
9.99772153615e-05
9.49296072092e-05
8.99999101058e-05
8.5211674871e-05
8.05851150905e-05
7.61374924541e-05
7.18832566417e-05
6.78339543915e-05
6.39979822314e-05
6.03802974159e-05
5.69822167714e-05
5.38014129422e-05
5.08321643209e-05
4.80658466632e-05
4.54915955657e-05
4.30970388014e-05
4.0869000391e-05
3.87941050338e-05
3.68592468204e-05
3.50519173172e-05
3.33604087476e-05
3.17739177129e-05
3.02825764046e-05
2.88774351054e-05
2.75504147548e-05
2.6294243258e-05
2.51023848637e-05
2.39689685991e-05
2.28887193514e-05
2.18568935637e-05
2.08692204472e-05
1.99218489609e-05
1.90113004161e-05
1.81344263535e-05
1.72883712332e-05
1.64705394484e-05
1.56785661706e-05
1.49102915658e-05
1.41637379516e-05
1.34370895107e-05
1.27286742076e-05
1.20369476018e-05
1.13604782742e-05
1.06979346223e-05
1.00480727974e-05
9.40972559128e-06
8.78179209324e-06
8.16322797621e-06
7.5530362953e-06
6.95025873927e-06
6.3539673326e-06
5.76325668154e-06
5.17723692851e-06
4.59502756931e-06
4.0157518518e-06
3.43852980266e-06
2.86246273633e-06
2.28658798507e-06
1.70974868651e-06
1.13026084164e-06
5.45217437738e-07
5.4617277639e-08
0.000247266770029
0.000249854725191
0.000249404418907
0.000246867695293
0.000243594327607
0.000240279385592
0.000237188398105
0.000234383766888
0.000231851254913
0.000229555372637
0.000227459809597
0.000225533352199
0.000223750522756
0.000222090656668
0.000220536762397
0.000219074569027
0.000217691825642
0.000216377812214
0.000215123003153
0.000213918833209
0.000212757529186
0.000211631983057
0.000210535650925
0.000209462468307
0.000208406775962
0.000207363252856
0.000206326855913
0.000205292760034
0.0002042563012
0.000203212923244
0.000202158127191
0.000201087419706
0.00019999626162
0.000198880015738
0.000197733893032
0.000196552896322
0.000195331760431
0.000194064887795
0.000192746278442
0.000191369453414
0.000189927370856
0.000188412334584
0.000186815895874
0.000185128750965
0.000183340639501
0.000181440253507
0.000179415172607
0.000177251849386
0.000174935678128
0.00017245118883
0.000169782412094
0.000166913454043
0.000163829298197
0.000160516813615
0.000156965904765
0.000153170708431
0.000149130743168
0.000144851939129
0.000140347476639
0.000135638297928
0.000130753058316
0.000125727271724
0.000120601571649
0.000115419272025
0.000110223614018
0.000105055165941
9.99500637983e-05
9.49393591682e-05
9.00492939309e-05
8.53021238e-05
8.07169319478e-05
7.63101487859e-05
7.20957146684e-05
6.80849313135e-05
6.42861038273e-05
6.07041205681e-05
5.73401384603e-05
5.41915154973e-05
5.12520614675e-05
4.85125871677e-05
4.59616559944e-05
4.35864063465e-05
4.13733228764e-05
3.9308874371e-05
3.73799834195e-05
3.55743316189e-05
3.38805267616e-05
3.22881668013e-05
3.07878339e-05
2.93710458309e-05
2.80301846531e-05
2.67584161315e-05
2.55496082199e-05
2.43982534083e-05
2.32993972924e-05
2.22485743231e-05
2.12417507669e-05
2.02752745144e-05
1.93458310887e-05
1.84504051929e-05
1.758624708e-05
1.67508431278e-05
1.5941890008e-05
1.51572719592e-05
1.43950406834e-05
1.36533974968e-05
1.29306773632e-05
1.22253345357e-05
1.1535929515e-05
1.08611171157e-05
1.0199635405e-05
9.55029535053e-06
8.91197098258e-06
8.28358994194e-06
7.6641242581e-06
7.05258126301e-06
6.44799451609e-06
5.84941463592e-06
5.25589978018e-06
4.66650518046e-06
4.08027007814e-06
3.49619787294e-06
2.91321918602e-06
2.33011430587e-06
1.74534645517e-06
1.15672563054e-06
5.60834279007e-07
5.8564595857e-08
0.000240070539982
0.000242769444074
0.000243129249516
0.000241635968558
0.000239294293618
0.000236720396157
0.000234207423778
0.00023186298088
0.000229708012566
0.000227729637187
0.000225905194156
0.000224211802465
0.000222629447941
0.000221141467114
0.000219734136133
0.00021839606001
0.000217117612067
0.000215890489931
0.00021470738592
0.000213561749235
0.000212447615404
0.000211359482559
0.000210292219259
0.000209240993116
0.000208201212955
0.000207168479529
0.00020613854433
0.000205107266592
0.000204070573202
0.000203024422358
0.000201964767067
0.000200887517155
0.000199788500146
0.000198663420292
0.000197507814984
0.000196317007657
0.000195086056198
0.000193809695667
0.000192482274079
0.000191097679815
0.000189649259307
0.000188129723832
0.000186531044927
0.000184844339314
0.000183059746848
0.000181166309319
0.000179151864893
0.000177002982632
0.000174704973986
0.00017224203086
0.000169597548477
0.000166754687638
0.000163697207002
0.000160410548696
0.000156883101626
0.000153107525506
0.000149082025854
0.000144811519504
0.000140308650828
0.000135594524046
0.000130698835915
0.000125659028855
0.000120518314869
0.000115322804939
0.000110118223473
0.000104946776893
9.98451011225e-05
9.4843716369e-05
8.99677255243e-05
8.52381265339e-05
8.06729570034e-05
7.62879545854e-05
7.20967252019e-05
6.8110508899e-05
6.43376735935e-05
6.07831226625e-05
5.74478339506e-05
5.43287155277e-05
5.14188687562e-05
4.87082265886e-05
4.61844344599e-05
4.38337993986e-05
4.16421539e-05
3.95955396448e-05
3.76806801705e-05
3.58852590168e-05
3.41980443729e-05
3.26089067007e-05
3.11087702364e-05
2.96895292663e-05
2.83439501524e-05
2.70655719264e-05
2.58486125442e-05
2.46878840666e-05
2.35787178336e-05
2.25168993939e-05
2.14986124019e-05
2.05203904053e-05
1.95790754622e-05
1.86717825498e-05
1.77958688805e-05
1.69489073196e-05
1.6128663257e-05
1.53330743467e-05
1.45602326585e-05
1.38083688193e-05
1.30758378236e-05
1.23611062027e-05
1.16627403202e-05
1.09793955539e-05
1.03098061872e-05
9.65277581278e-06
9.0071681001e-06
8.37189774951e-06
7.74592148911e-06
7.12822891433e-06
6.51783295483e-06
5.91375958334e-06
5.3150361208e-06
4.72067679246e-06
4.12966280314e-06
3.54091117811e-06
2.95322068295e-06
2.36517216859e-06
1.77494446253e-06
1.17999501136e-06
5.76583733026e-07
6.47577342269e-08
0.000234435581978
0.000237085309206
0.000237927516796
0.00023716898206
0.000235543244053
0.000233568681493
0.000231534158022
0.00022957235602
0.000227730288551
0.000226014440986
0.000224414886427
0.000222916752389
0.000221505093604
0.000220166624048
0.000218890073467
0.000217666010441
0.000216486508789
0.000215344811782
0.000214235047307
0.00021315200392
0.00021209096126
0.000211047563723
0.000210017726438
0.000208997564442
0.000207983338014
0.000206971408924
0.000205958206412
0.000204940192713
0.000203913830467
0.000202875556697
0.000201821754626
0.000200748724474
0.000199652652713
0.00019852957903
0.000197375360198
0.000196185629911
0.000194955753481
0.000193680776097
0.000192355363042
0.000190973730075
0.000189529561868
0.000188015916391
0.000186425113359
0.000184748605872
0.000182976836592
0.000181099084144
0.000179103312811
0.000176976050069
0.000174702332233
0.000172265776737
0.000169648854679
0.000166833438936
0.000163801677967
0.000160537185636
0.000157026455386
0.000153260345955
0.000149235500877
0.000144955659577
0.000140432883528
0.000135688589476
0.00013075396109
0.000125669141599
0.000120480945569
0.000115239421978
0.000109993871693
0.000104788978011
9.9662305974e-05
9.46439094444e-05
8.97576643782e-05
8.50232551224e-05
8.04577163315e-05
7.60762226108e-05
7.18922337882e-05
6.7917141148e-05
6.41595660081e-05
6.06245414167e-05
5.73128613576e-05
5.42208424745e-05
5.13406149205e-05
4.86608912895e-05
4.61680281023e-05
4.38471460377e-05
4.16831142472e-05
3.96612903849e-05
3.7767994041e-05
3.59907491914e-05
3.43183560632e-05
3.27408534837e-05
3.12494211114e-05
2.98362561399e-05
2.84944458963e-05
2.72178480405e-05
2.60009836444e-05
2.48389446569e-05
2.37273152134e-05
2.26621053508e-05
2.1639695369e-05
2.06567891306e-05
1.97103747417e-05
1.87976912987e-05
1.79162005858e-05
1.70635628245e-05
1.62376157261e-05
1.54363562514e-05
1.46579245815e-05
1.39005898992e-05
1.3162737646e-05
1.24428579778e-05
1.17395351788e-05
1.1051437831e-05
1.03773095516e-05
9.7159601309e-06
9.06625690269e-06
8.42711617536e-06
7.79749452406e-06
7.17637968827e-06
6.56278070287e-06
5.95571666118e-06
5.3542030668e-06
4.75723387336e-06
4.16375568656e-06
3.57262758238e-06
2.98255470514e-06
2.3919755687e-06
1.79887352803e-06
1.2004816705e-06
5.92880096483e-07
7.34392568567e-08
0.000229926537209
0.000232459124539
0.000233582556929
0.00023334100816
0.000232265033594
0.000230776961931
0.000229143276367
0.000227506187385
0.000225929918507
0.000224436310132
0.000223026701876
0.000221693822357
0.000220427689789
0.000219218272179
0.000218056514347
0.000216934596423
0.000215845863834
0.000214784641614
0.000213746029545
0.000212725717185
0.000211719830745
0.000210724811885
0.000209737323925
0.00020875417985
0.000207772286816
0.000206788603231
0.000205800105216
0.000204803755809
0.000203796474902
0.000202775117938
0.000201736452077
0.000200677131912
0.000199593673752
0.000198482427612
0.000197339546015
0.000196160948565
0.000194942281083
0.000193678867795
0.000192365654719
0.000190997141957
0.00018956730212
0.000188069481714
0.00018649628213
0.000184839417315
0.000183089546965
0.000181236088015
0.000179267014964
0.000177168672622
0.000174925644451
0.000172520744587
0.000169935226057
0.000167149307926
0.000164143099977
0.00016089792821
0.000157397948051
0.000153631835682
0.000149594368156
0.00014528787392
0.000140723694035
0.000135923627903
0.000130920782646
0.000125758867468
0.000120489486317
0.000115167965215
0.000109848487076
0.000104579198293
9.93990043427e-05
9.43374031951e-05
8.94167987112e-05
8.46554225653e-05
8.00693285763e-05
7.56732656553e-05
7.14807591206e-05
6.75036008086e-05
6.3750895722e-05
6.02279484379e-05
5.69353653616e-05
5.38687002779e-05
5.10187952892e-05
4.83727371718e-05
4.59151670322e-05
4.36296266774e-05
4.14996941228e-05
3.95097872811e-05
3.76456302221e-05
3.58944455048e-05
3.42449587013e-05
3.26872937472e-05
3.121281781e-05
2.98139733917e-05
2.848411873e-05
2.72173861898e-05
2.6008561556e-05
2.48529834929e-05
2.37464608523e-05
2.2685204998e-05
2.16657744322e-05
2.06850293107e-05
1.97400938629e-05
1.88283250838e-05
1.79472864266e-05
1.70947254669e-05
1.62685547558e-05
1.54668352168e-05
1.46877616046e-05
1.3929649612e-05
1.31909243161e-05
1.24701096864e-05
1.17658189444e-05
1.1076745569e-05
1.04016547882e-05
9.73937537907e-06
9.0887916191e-06
8.44883518752e-06
7.8184767894e-06
7.19671716208e-06
6.58257697638e-06
5.97508482169e-06
5.37326194388e-06
4.77610142688e-06
4.18253785944e-06
3.59140070269e-06
3.00134021029e-06
2.41070891596e-06
1.8173768543e-06
1.2184620737e-06
6.09981876806e-07
8.47543201031e-08
0.000226260232441
0.000228651164038
0.00022993108342
0.000230052424356
0.000229397759942
0.000228304391434
0.000227008100169
0.000225649838357
0.00022430345331
0.000223001975335
0.000221756099505
0.000220565437972
0.000219424777063
0.000218327308155
0.000217266161454
0.000216235041196
0.000215228411556
0.000214241474802
0.000213270066284
0.00021231052736
0.000211359583931
0.000210414241181
0.000209471696855
0.000208529271695
0.000207584354206
0.000206634358443
0.000205676688979
0.000204708710643
0.000203727720071
0.000202730925077
0.000201715422799
0.000200678177706
0.000199615998447
0.000198525512607
0.000197403138375
0.000196245051994
0.000195047149657
0.000193805002167
0.000192513800215
0.000191168287542
0.000189762678499
0.000188290555776
0.000186744743307
0.000185117149219
0.000183398574593
0.000181578487191
0.000179644766905
0.000177583444156
0.000175378476
0.00017301163791
0.000170462646131
0.000167709649667
0.000164730212349
0.000161502812547
0.000158008721355
0.000154233961473
0.000150171062389
0.000145820615967
0.000141192976675
0.00013631027446
0.000131207964289
0.000125934335917
0.000120547213414
0.00011510882665
0.00010967988467
0.000104313255878
9.90496089212e-05
9.39175906164e-05
8.89377010959e-05
8.41265156576e-05
7.94991409341e-05
7.5070061257e-05
7.08531067956e-05
6.68607581004e-05
6.31028737884e-05
5.95851917348e-05
5.63081094949e-05
5.32661859077e-05
5.04485652742e-05
4.78402005606e-05
4.54235017249e-05
4.31799771434e-05
4.10915535306e-05
3.91414452973e-05
3.73145974099e-05
3.55978056814e-05
3.39796340023e-05
3.24502278679e-05
3.10010922354e-05
2.96248734895e-05
2.83151647915e-05
2.70663414342e-05
2.58734259093e-05
2.47319793016e-05
2.36380146002e-05
2.25879276349e-05
2.15784418714e-05
2.06065639943e-05
1.96695478279e-05
1.87648647152e-05
1.78901788973e-05
1.7043326798e-05
1.6222299363e-05
1.54252268171e-05
1.46503653332e-05
1.38960852313e-05
1.3160860393e-05
1.24432586472e-05
1.17419329144e-05
1.10556129349e-05
1.03830974133e-05
9.72324642275e-06
9.07497389096e-06
8.43723996627e-06
7.80904298555e-06
7.18941065357e-06
6.5773898331e-06
5.9720339959e-06
5.37238679133e-06
4.77745920569e-06
4.18619618784e-06
3.59742614972e-06
3.00978329e-06
2.42158877062e-06
1.83067466402e-06
1.23413921211e-06
6.2803883894e-07
9.8762084947e-08
0.000223245250771
0.000225489997165
0.000226848249612
0.000227222989304
0.000226890351294
0.000226116491171
0.0002251043304
0.000223986823103
0.000222841519653
0.000221708807361
0.000220606653988
0.000219540583399
0.000218509776996
0.000217510550966
0.000216538217079
0.000215588006502
0.00021465547583
0.000213736640679
0.000212827974992
0.000211926351213
0.00021102896054
0.000210133232517
0.000209236762373
0.000208337248907
0.000207432442754
0.000206520106326
0.000205597979037
0.000204663745675
0.00020371500996
0.000202749273151
0.000201763912777
0.000200756161418
0.00019972308458
0.000198661556658
0.000197568233955
0.000196439523554
0.000195271546586
0.000194060094059
0.000192800572829
0.000191487938538
0.00019011661136
0.000188680369176
0.000187172211557
0.000185584186875
0.000183907174812
0.000182130618835
0.000180242210172
0.000178227540024
0.000176069764319
0.000173749367999
0.000171244169619
0.000168529752636
0.000165580505503
0.000162371342764
0.000158879941792
0.000155089063915
0.000150988502502
0.000146576661633
0.000141862449867
0.000136868071783
0.000131631720884
0.000126207513752
0.000120661277309
0.000115064163009
0.000109485570793
0.000103984833625
9.86048589183e-05
9.33728430515e-05
8.83067247739e-05
8.34211959912e-05
7.8730510241e-05
7.42490812037e-05
6.99913001443e-05
6.597065325e-05
6.21980516159e-05
5.86798302143e-05
5.54161086873e-05
5.240011425e-05
4.96187387179e-05
4.705414088e-05
4.46858558077e-05
4.24928172902e-05
4.04548959868e-05
3.85538268811e-05
3.67736004304e-05
3.51004787826e-05
3.35227992101e-05
3.203068738e-05
3.06157570197e-05
2.92708356869e-05
2.79897322436e-05
2.67670480738e-05
2.5598027696e-05
2.4478442155e-05
2.34044984863e-05
2.23727693407e-05
2.13801379629e-05
2.04237547534e-05
1.95010025621e-05
1.86094685609e-05
1.77469211137e-05
1.69112904554e-05
1.61006523133e-05