/*--------------------------------*- C++ -*----------------------------------*\
  =========                 |
  \\      /  F ield         | OpenFOAM: The Open Source CFD Toolbox
   \\    /   O peration     | Website:  https://openfoam.org
    \\  /    A nd           | Version:  7
     \\/     M anipulation  |
\*---------------------------------------------------------------------------*/
FoamFile
{
    version     2.0;
    format      ascii;
    class       surfaceScalarField;
    location    "2220";
    object      phi;
}
// * * * * * * * * * * * * * * * * * * * * * * * * * * * * * * * * * * * * * //

dimensions      [0 3 -1 0 0 0 0];

internalField   nonuniform List<scalar> 
16192
(
6.92926592471e-10
2.44573407529e-10
4.93570571583e-10
1.99356018015e-10
3.64831728866e-10
1.28738839721e-10
2.82239962961e-10
8.25917628454e-11
2.27599305311e-10
5.46406543773e-11
1.89966841048e-10
3.76324608572e-11
1.63000499383e-10
2.69663382036e-11
1.42987987884e-10
2.00125080414e-11
1.27695242489e-10
1.52927419697e-11
1.1572994619e-10
1.19652929373e-11
1.06191727342e-10
9.53821555757e-12
9.84770770121e-11
7.71464713514e-12
9.21678535531e-11
6.30922036009e-12
8.69656641188e-11
5.20218645473e-12
8.2652022105e-11
4.31363915338e-12
7.90633883753e-11
3.58863101623e-12
7.60750593662e-11
2.988326443e-12
7.3590469469e-11
2.48458751156e-12
7.15339017612e-11
2.05656550356e-12
6.98454030711e-11
1.68849670522e-12
6.84771606379e-11
1.36824066856e-12
6.73908711359e-11
1.08628800015e-12
6.65557977583e-11
8.35072138391e-13
6.59473143988e-11
6.08482429772e-13
6.55458005757e-11
4.01513201562e-13
6.53357936997e-11
2.10006613236e-13
6.53053324902e-11
3.04613021804e-14
6.54454448472e-11
-1.40111854595e-13
6.57497445733e-11
-3.04298820268e-13
6.62141120148e-11
-4.64366074647e-13
6.68364395144e-11
-6.22325681805e-13
6.76164260384e-11
-7.79984194312e-13
6.85554072206e-11
-9.38978355579e-13
6.96562098321e-11
-1.10079922387e-12
7.09230193072e-11
-1.26680554702e-12
7.23612500668e-11
-1.43822622452e-12
7.39774064581e-11
-1.61615127615e-12
7.57789221527e-11
-1.80150993127e-12
7.77739627824e-11
-1.99503425315e-12
7.997117599e-11
-2.1972061489e-12
8.2379369563e-11
-2.40818587743e-12
8.50070982488e-11
-2.62772028509e-12
8.78621376828e-11
-2.85503038535e-12
9.0950827013e-11
-3.08867956755e-12
9.42772646538e-11
-3.32642723448e-12
9.78423525765e-11
-3.56507680947e-12
1.01642697465e-10
-3.80033315385e-12
1.05669400331e-10
-4.02669045025e-12
1.09906791272e-10
-4.23737795137e-12
1.14331199126e-10
-4.42439424489e-12
1.18909873634e-10
-4.57866042214e-12
1.23600203392e-10
-4.69031519197e-12
1.28349380198e-10
-4.74916196808e-12
1.3309465422e-10
-4.74525898505e-12
1.37764293217e-10
-4.66962407345e-12
1.42279315098e-10
-4.51500724147e-12
1.46555998866e-10
-4.27666983147e-12
1.50509105898e-10
-3.95309403788e-12
1.54055648476e-10
-3.54653099406e-12
1.5711893969e-10
-3.06328126487e-12
1.59632552927e-10
-2.51360533636e-12
1.61543756922e-10
-1.91119826752e-12
1.62816000392e-10
-1.27224021453e-12
1.6343013475e-10
-6.14133580154e-13
1.6338426085e-10
4.58719911039e-14
1.62692334486e-10
6.91921840051e-13
1.61381896231e-10
1.31043097439e-12
1.59491402293e-10
1.89048405627e-12
1.57067599834e-10
2.42378995542e-12
1.54163267824e-10
2.9043171959e-12
1.50835445881e-10
3.32780496916e-12
1.47144101956e-10
3.69132526087e-12
1.43151078049e-10
3.99300381964e-12
1.38919126434e-10
4.23193062178e-12
1.34510879941e-10
4.40822485786e-12
1.2998767896e-10
4.52317915838e-12
1.25408264236e-10
4.57939289311e-12
1.20827425872e-10
4.58081686769e-12
1.1629474221e-10
4.53266257608e-12
1.11853551243e-10
4.44117052956e-12
1.07540262817e-10
4.31326862793e-12
1.03384068148e-10
4.15617566844e-12
9.94070398357e-11
3.97701004772e-12
9.56245680885e-11
3.7824543266e-12
9.20460447878e-11
3.57850663324e-12
8.86756993106e-11
3.37032964354e-12
8.5513493913e-11
3.16219029539e-12
8.25560063051e-11
2.95747330306e-12
7.97972459444e-11
2.7587467493e-12
7.72293739479e-11
2.56785913714e-12
7.48433115158e-11
2.38605022366e-12
7.26292370191e-11
2.21406299421e-12
7.05769780067e-11
2.05224811889e-12
6.86763113539e-11
1.900656421e-12
6.69171844802e-11
1.75911721081e-12
6.52898727954e-11
1.62730264072e-12
6.37850853571e-11
1.50477892314e-12
6.23940311833e-11
1.39104623434e-12
6.11084548234e-11
1.28556890797e-12
5.99206500164e-11
1.18779788565e-12
5.88234567011e-11
1.09718683738e-12
5.78102471702e-11
1.01320353604e-12
5.68749041062e-11
9.35337466103e-13
5.60117941311e-11
8.63104810867e-13
5.52157379021e-11
7.96051413481e-13
5.44819789499e-11
7.33754520713e-13
5.38061511728e-11
6.75823646693e-13
5.31842462127e-11
6.21901165835e-13
5.26125798271e-11
5.71662847079e-13
5.20877577083e-11
5.2481887236e-13
5.1606639115e-11
4.81115561897e-13
5.11662979039e-11
4.40338433379e-13
5.07639783002e-11
4.02317006973e-13
5.03970436226e-11
3.66932303398e-13
5.00629134329e-11
3.34127969952e-13
4.97589846048e-11
3.03926808524e-13
4.94825277521e-11
2.76454970469e-13
4.92305482964e-11
2.51977761418e-13
4.89995937822e-11
2.30952952183e-13
4.87854806741e-11
2.14111736336e-13
4.85828955154e-11
2.02583931209e-13
4.83847987063e-11
1.98095793463e-13
4.81815118208e-11
2.0328604327e-13
4.79593077291e-11
2.22203488833e-13
4.76982869066e-11
2.61020402709e-13
4.73696758152e-11
3.2861089512e-13
4.69349807556e-11
4.34695116585e-13
5.57711680475e-13
9.534123274e-10
2.28661077513e-10
8.5964212961e-10
2.93126209796e-10
7.45073653588e-10
2.43307309528e-10
6.41851764282e-10
1.85813645618e-10
5.56605415678e-10
1.39886996133e-10
4.88134522883e-10
1.06103346659e-10
4.33419121184e-10
8.16817328796e-11
3.89508142379e-10
6.39234798723e-11
3.53989254529e-10
5.08116229414e-11
3.25006682754e-10
4.09478579686e-11
3.01161403152e-10
3.3383488576e-11
2.81401430137e-10
2.74746137542e-11
2.64931161093e-10
2.27794832157e-11
2.51143116309e-10
1.89902252867e-11
2.39568357131e-10
1.58883926374e-11
2.29840896673e-10
1.33160860747e-11
2.21672154865e-10
1.11570631699e-11
2.14832509679e-10
9.32422797868e-12
2.09137847308e-10
7.75122354367e-12
2.04439648988e-10
6.38669113036e-12
2.00617599926e-10
5.19028630229e-12
1.97574015575e-10
4.12986944148e-12
1.95229591942e-10
3.17949341065e-12
1.93520132155e-10
2.31794046166e-12
1.9239400083e-10
1.52764340645e-12
1.91810127378e-10
7.93879641851e-13
1.91736426934e-10
1.04162046395e-13
1.92148541998e-10
-5.52225831998e-13
1.93028829871e-10
-1.18458479379e-12
1.9436554062e-10
-1.80107404791e-12
1.96152141298e-10
-2.40892268443e-12
1.98386749337e-10
-3.01458759526e-12
2.01071642922e-10
-3.62386632166e-12
2.04212820215e-10
-4.24196985369e-12
2.07819579767e-10
-4.87355737895e-12
2.11904095273e-10
-5.52273289209e-12
2.16480955481e-10
-6.19300152273e-12
2.21566638816e-10
-6.88718212256e-12
2.27178888263e-10
-7.60727138004e-12
2.33335950184e-10
-8.35425452006e-12
2.40055637062e-10
-9.1278579933e-12
2.47354174635e-10
-9.92624183743e-12
2.55244794793e-10
-1.07456332971e-11
2.63736044197e-10
-1.15799104632e-11
2.72829791405e-10
-1.24201547199e-11
2.82518940478e-10
-1.32542049226e-11
2.92784892273e-10
-1.40662628211e-11
3.03594842685e-10
-1.48366175658e-11
3.14899061601e-10
-1.55415725144e-11
3.26628358789e-10
-1.6153666076e-11
3.38691997327e-10
-1.66422727965e-11
3.50976356797e-10
-1.69746478586e-11
3.63344657202e-10
-1.71174352735e-11
3.75638028787e-10
-1.70386035128e-11
3.8767814177e-10
-1.67097105759e-11
3.99271505232e-10
-1.61083453145e-11
4.10215404575e-10
-1.5220545558e-11
4.20305284866e-10
-1.40429530755e-11
4.29343196201e-10
-1.2584424123e-11
4.37146715937e-10
-1.08667863429e-11
4.43557575542e-10
-8.92445435735e-12
4.48449118022e-10
-6.80273453893e-12
4.51731753061e-10
-4.55487374261e-12
4.53355806975e-10
-2.2381908005e-12
4.53311549696e-10
9.012097314e-14
4.51626647513e-10
2.37681075056e-12
4.48361716232e-10
4.57534399375e-12
4.43604870966e-10
6.64730630557e-12
4.37466132213e-10
8.56250120612e-12
4.3007232601e-10
1.02980919674e-11
4.21562767528e-10
1.18373286606e-11
4.12085700537e-10
1.31683548876e-11
4.01795255241e-10
1.42834098634e-11
3.9084861912e-10
1.51785263872e-11
3.7940316085e-10
1.5853642253e-11
3.67613377166e-10
1.6312922067e-11
3.55627687812e-10
1.65650419579e-11
3.4358524704e-10
1.66232182476e-11
3.31613023289e-10
1.65048480269e-11
3.19823413713e-10
1.62307431358e-11
3.08312601744e-10
1.58240450137e-11
2.97159767355e-10
1.53089759799e-11
2.86427143351e-10
1.47096014513e-11
2.76160815038e-10
1.40487515699e-11
2.66392093635e-10
1.33471984221e-11
2.57139269492e-10
1.26231256508e-11
2.4840955539e-10
1.18918776494e-11
2.40201060872e-10
1.11659424664e-11
2.32504675719e-10
1.04551078496e-11
2.253057833e-10
9.76672880726e-12
2.18585758598e-10
9.10605339191e-12
2.12323235988e-10
8.47656529017e-12
2.0649515026e-10
7.88031466585e-12
2.01077569078e-10
7.31821956118e-12
1.96046340238e-10
6.79032906645e-12
1.91377581528e-10
6.29604542753e-12
1.87048039029e-10
5.83430648231e-12
1.83035339396e-10
5.40373190887e-12
1.79318157176e-10
5.00273807367e-12
1.7587631656e-10
4.62962634797e-12
1.72690842287e-10
4.28264977593e-12
1.69743972983e-10
3.96006231868e-12
1.67019146113e-10
3.66015454733e-12
1.64500962975e-10
3.38127888447e-12
1.62175138793e-10
3.12186717425e-12
1.60028442821e-10
2.88044270665e-12
1.58048630578e-10
2.65562866165e-12
1.56224370602e-10
2.44615446308e-12
1.54545165693e-10
2.25086155487e-12
1.53001269016e-10
2.06870982294e-12
1.51583593159e-10
1.89878610028e-12
1.50283610578e-10
1.74031610773e-12
1.490932414e-10
1.59268162921e-12
1.48004724601e-10
1.45544491012e-12
1.47010465635e-10
1.32838305703e-12
1.46102853053e-10
1.21153584411e-12
1.45274033092e-10
1.10527167982e-12
1.44515630138e-10
1.01037779089e-12
1.43818397761e-10
9.28182708662e-13
1.4317178658e-10
8.60720648501e-13
1.42563421064e-10
8.10947523905e-13
1.4197850443e-10
7.83010913234e-13
1.4139924411e-10
7.82545263161e-13
1.40804590861e-10
8.16856118297e-13
1.40171109806e-10
8.9450131752e-13
1.39477096738e-10
1.02262420022e-12
1.38716212426e-10
1.19557976909e-12
1.35368066656e-12
9.76222235323e-10
1.89938839196e-10
9.6295107486e-10
3.0639736335e-10
9.05985059065e-10
3.00273318351e-10
8.33485073883e-10
2.58313623774e-10
7.60447864468e-10
2.12924198314e-10
6.93288979461e-10
1.73262224326e-10
6.34083992474e-10
1.40886712506e-10
5.82941856121e-10
1.15065608912e-10
5.39183261491e-10
9.45702103385e-11
5.01889632012e-10
7.82414803341e-11
4.70141625429e-10
6.51314881786e-11
4.43110910136e-10
5.45053222355e-11
4.2008562689e-10
4.58047598226e-11
4.004678615e-10
3.86079842516e-11
3.83760846168e-10
3.2595401764e-11
3.69553735398e-10
2.75231909063e-11
3.57507172897e-10
2.32036200066e-11
3.47340757558e-10
1.94906379829e-11
3.38822599975e-10
1.62693761305e-11
3.3176079896e-10
1.34484875456e-11
3.25996553237e-10
1.09545278343e-11
3.21398616212e-10
8.72780274675e-12
3.17858833108e-10
6.71927327789e-12
3.15288543067e-10
4.88822781677e-12
3.13615669382e-10
3.20051496434e-12
3.12782357229e-10
1.62719030106e-12
3.12743046256e-10
1.43472162709e-13
3.134628889e-10
-1.27206861584e-12
3.14916440183e-10
-2.63813550244e-12
3.17086563076e-10
-3.97119556693e-12
3.19963499113e-10
-5.28585655592e-12
3.23544061316e-10
-6.59514675401e-12
3.27830910163e-10
-7.9107112585e-12
3.32831876899e-10
-9.24293172285e-12
3.38559297787e-10
-1.06009724648e-11
3.45029323476e-10
-1.19927517506e-11
3.52261164235e-10
-1.34248344503e-11
3.60276230537e-10
-1.49022394992e-11
3.6909712376e-10
-1.64281546204e-11
3.78746430547e-10
-1.8003550176e-11
3.89245271128e-10
-1.96266863444e-11
4.00611554672e-10
-2.12925119627e-11
4.12857898383e-10
-2.29919624651e-11
4.25989181018e-10
-2.47111773461e-11
4.39999720824e-10
-2.64306776477e-11
4.5487010293e-10
-2.81245689434e-11
4.70563725685e-10
-2.97598663922e-11
4.8702319807e-10
-3.12960696029e-11
5.0416678949e-10
-3.26851425705e-11
5.21885211565e-10
-3.38720657516e-11
5.40039077731e-10
-3.47961157598e-11
5.58457435323e-10
-3.53929815227e-11
5.76937769739e-10
-3.55977454165e-11
5.95247839953e-10
-3.53486493482e-11
6.13129604305e-10
-3.45914510134e-11
6.30305353117e-10
-3.32840710886e-11
6.46485979524e-10
-3.14011505285e-11
6.61381112254e-10
-2.89380664621e-11
6.74710593583e-10
-2.59138889426e-11
6.86216534628e-10
-2.23727141238e-11
6.95674944264e-10
-1.83828545717e-11
7.02905798807e-10
-1.40335837149e-11
7.07780471776e-10
-9.42954579737e-12
7.10225737467e-10
-4.68346005245e-12
7.10224053769e-10
9.17963918853e-14
7.07810427716e-10
4.79042392345e-12
7.03066713801e-10
9.31904034611e-12
6.96114493362e-10
1.35995048233e-11
6.87107643867e-10
1.75693246074e-11
6.76225419729e-10
2.11802864615e-11
6.63666424125e-10
2.43962915438e-11
6.49643457717e-10
2.71912863205e-11
6.34378973729e-10
2.95478571968e-11
6.18100787361e-10
3.14566752228e-11
6.01037742067e-10
3.29166496072e-11
5.8341519263e-10
3.39354337917e-11
5.65450354063e-10
3.45298433244e-11
5.47347740738e-10
3.47257953208e-11
5.29295020745e-10
3.45575328292e-11
5.11459625981e-10
3.40661040422e-11
4.93986381629e-10
3.32972568277e-11
4.76996292061e-10
3.2299034488e-11
4.60586471815e-10
3.11193920259e-11
4.44831088223e-10
2.98041069721e-11
4.29783096758e-10
2.83951630503e-11
4.15476518239e-10
2.6929678745e-11
4.01929010677e-10
2.54393610572e-11
3.89144525439e-10
2.39504048668e-11
3.77115882905e-10
2.24837287208e-11
3.65827155967e-10
2.10554353003e-11
3.55255792883e-10
1.9677397114e-11
3.45374450443e-10
1.83578894941e-11
3.36152533262e-10
1.71022146126e-11
3.27557455658e-10
1.59132809756e-11
3.19555651158e-10
1.47921183053e-11
3.12113362132e-10
1.37383201636e-11
3.05197241178e-10
1.27504140037e-11
2.98774796742e-10
1.18261638109e-11
2.92814710591e-10
1.09628124777e-11
2.87287053354e-10
1.01572726607e-11
2.82163418607e-10
9.40627431226e-12
2.7741699437e-10
8.70647709019e-12
2.73022585633e-10
8.0545544538e-12
2.68956600477e-10
7.44725587487e-12
2.65197007895e-10
6.88145214644e-12
2.61723275074e-10
6.35416850246e-12
2.5851628814e-10
5.86260905043e-12
2.55558260554e-10
5.40417601298e-12
2.52832630112e-10
4.97648636766e-12
2.50323945991e-10
4.57738875654e-12
2.48017744316e-10
4.20498293422e-12
2.45900411377e-10
3.85764458967e-12
2.43959030779e-10
3.5340580671e-12
2.42181211527e-10
3.23326034419e-12
2.40554891475e-10
2.95469955444e-12
2.39068111785e-10
2.6983122949e-12
2.37708756717e-10
2.46462375794e-12
2.36464256904e-10
2.25487492798e-12
2.35321258457e-10
2.07117874057e-12
2.34265275034e-10
1.91670199972e-12
2.33280365773e-10
1.79585501908e-12
2.32348938622e-10
1.71443669814e-12
2.31451883733e-10
1.67959914866e-12
2.30569444541e-10
1.69929475095e-12
2.2968357862e-10
1.78036717279e-12
2.28783092698e-10
1.92311046589e-12
2.27871919446e-10
2.10675355962e-12
2.25468112519e-12
9.71742290252e-10
1.55696545737e-10
9.86573272997e-10
2.91566373038e-10
9.6792496891e-10
3.18921615018e-10
9.27415688473e-10
2.98822896593e-10
8.76904288925e-10
2.63435589976e-10
8.23919014626e-10
2.26247490611e-10
7.72616264794e-10
1.92189454296e-10
7.25035165668e-10
1.62646700026e-10
6.81994486467e-10
1.37610881589e-10
6.43649181983e-10
1.16586776959e-10
6.09816121798e-10
9.89645406136e-11
5.80157863167e-10
8.41635732455e-11
5.54282956275e-10
7.16796592399e-11
5.31798464242e-10
6.10924689785e-11
5.12335692652e-10
5.20581662337e-11
4.95561223734e-10
4.42976529198e-11
4.81180120355e-10
3.75847167179e-11
4.68935145481e-10
3.17356064573e-11
4.58604118705e-10
2.66003967988e-11
4.49996556224e-10
2.20560442462e-11
4.42950193183e-10
1.80008854477e-11
4.37327683761e-10
1.43503071315e-11
4.33013607996e-10
1.10333444223e-11
4.29911825866e-10
7.99000578383e-12
4.27943173197e-10
5.16916395345e-12
4.27043472316e-10
2.52688802618e-12
4.27161820729e-10
2.51211444265e-14
4.28259118014e-10
-2.36936791268e-12
4.30306790114e-10
-4.68580899727e-12
4.33285678617e-10
-6.95008480328e-12
4.3718505586e-10
-9.18523384773e-12
4.42001731312e-10
-1.14118215281e-11
4.47739214577e-10
-1.36481930946e-11
4.54406900309e-10
-1.59106152323e-11
4.62019238458e-10
-1.82133075748e-11
4.70594851468e-10
-2.05683608589e-11
4.80155556597e-10
-2.29855347969e-11
4.90725248719e-10
-2.54719259086e-11
5.0232859501e-10
-2.80314942521e-11
5.14989491004e-10
-3.06644385146e-11
5.28729225932e-10
-3.33664126087e-11
5.43564308342e-10
-3.61275846531e-11
5.59503909597e-10
-3.89315529356e-11
5.76546898478e-10
-4.17541543366e-11
5.94678464261e-10
-4.45622304331e-11
6.13866364301e-10
-4.73124548414e-11
6.34056884116e-10
-4.99503709321e-11
6.55170667105e-10
-5.24098361598e-11
6.77098651009e-10
-5.46131089219e-11
6.99698435525e-10
-5.64718316104e-11
7.22791483085e-10
-5.78891436575e-11
7.46161608787e-10
-5.8763086667e-11
7.69555221883e-10
-5.89913372892e-11
7.92683729157e-10
-5.84771350072e-11
8.15228391768e-10
-5.71360920414e-11
8.36847756244e-10
-5.4903414486e-11
8.57187570232e-10
-5.17409445452e-11
8.75892860284e-10
-4.76433382545e-11
8.92621584807e-10
-4.26425975707e-11
9.07058984091e-10
-3.68101004446e-11
9.18931463404e-10
-3.02553243812e-11
9.28018665858e-10
-2.31207805049e-11
9.34162434396e-10
-1.5573312822e-11
9.37271697833e-10
-7.79272629725e-12
9.37322904454e-10
4.0582508936e-14
9.34356348956e-10
7.75696769188e-12
9.28469414408e-10
1.5205958732e-11
9.19808125216e-10
2.22607736171e-11
9.08558357708e-10
2.88190677885e-11
8.94937670776e-10
3.48009456497e-11
8.79188170218e-10
4.01457615404e-11
8.61570351741e-10
4.48090721356e-11
8.42357587687e-10
4.87605871665e-11
8.21830844595e-10
5.19833834874e-11
8.00273298475e-10
5.44741607011e-11
7.77964702788e-10
5.62439947536e-11
7.55175591366e-10
5.73189206694e-11
7.32161601662e-10
5.77397519062e-11
7.09158320922e-10
5.75607815855e-11
6.86377066189e-10
5.68473280887e-11
6.64001911947e-10
5.56723817302e-11
6.42188119839e-10
5.41127986659e-11
6.21061948475e-10
5.22455368417e-11
6.00721675921e-10
5.0144354362e-11
5.81239572586e-10
4.78772425399e-11
5.62664526992e-10
4.55047017872e-11
5.45025036579e-10
4.30788301303e-11
5.28332318306e-10
4.06431029793e-11
5.1258334861e-10
3.82326793539e-11
4.97763701011e-10
3.58750649025e-11
4.83850100117e-10
3.3590981006e-11
4.70812653393e-10
3.13953201843e-11
4.58616751988e-10
2.92981008902e-11
4.47224653872e-10
2.73053648527e-11
4.36596774618e-10
2.54199841524e-11
4.26692718821e-10
2.36423633736e-11
4.17472086629e-10
2.19710343762e-11
4.08895090182e-10
2.04031491938e-11
4.00923011516e-10
1.89348807855e-11
3.93518531001e-10
1.75617435091e-11
3.86645950838e-10
1.62788454497e-11
3.80271335172e-10
1.50810843568e-11
3.74362584035e-10
1.3963297765e-11
3.68889455868e-10
1.29203767734e-11
3.63823549694e-10
1.19473515578e-11
3.59138256267e-10
1.10394556556e-11
3.54808684565e-10
1.01921749163e-11
3.5081156886e-10
9.40128630524e-12
3.4712515921e-10
8.66289098275e-12
3.43729097551e-10
7.97344574453e-12
3.40604279628e-10
7.32979650901e-12
3.3773270267e-10
6.72921751658e-12
3.35097297215e-10
6.16945977231e-12
3.326817417e-10
5.64881239047e-12
3.30470257707e-10
5.16618033366e-12
3.28447385281e-10
4.72118176871e-12
3.26597739299e-10
4.31426703322e-12
3.24905753206e-10
3.94685858051e-12
3.2335542456e-10
3.62150521029e-12
3.21930093125e-10
3.34203156042e-12
3.2061230825e-10
3.11363834334e-12
3.19383886673e-10
2.94285710906e-12
3.18226328676e-10
2.83715639797e-12
3.17121851155e-10
2.80377198187e-12
3.16055366311e-10
2.84685214507e-12
3.15017477661e-10
2.96099955818e-12
3.14006659074e-10
3.11757269827e-12
3.24075711965e-12
9.63917192787e-10
1.29279348942e-10
9.87589913692e-10
2.67893643619e-10
9.89544639816e-10
3.16966880491e-10
9.7186869044e-10
3.16498837596e-10
9.41509076987e-10
2.93795194862e-10
9.04512818079e-10
2.63243740844e-10
8.65075406005e-10
2.31626857666e-10
8.25844773129e-10
2.01877324223e-10
7.88377827644e-10
1.75077818447e-10
7.53514056443e-10
1.51450539612e-10
7.21640144811e-10
1.30838443788e-10
6.92866809129e-10
1.12936900582e-10
6.67143358307e-10
9.74031018397e-11
6.44330367207e-10
8.39054520025e-11
6.24244935719e-10
7.2143589808e-11
6.0668830515e-10
6.18542757646e-11
5.91462258446e-10
5.28107559035e-11
5.78378466696e-10
4.48193909279e-11
5.6726345097e-10
3.77154055032e-11
5.57960858777e-10
3.13586297102e-11
5.50332129868e-10
2.56296079403e-11
5.44256226843e-10
2.04262040898e-11
5.39628851082e-10
1.56607144867e-11
5.36361402811e-10
1.12574487681e-11
5.34379841004e-10
7.15072090412e-12
5.33623533889e-10
3.28319075523e-12
5.34044149125e-10
-3.95497985853e-13
5.35604604673e-10
-3.92982682385e-12
5.38278086222e-10
-7.35929335844e-12
5.42047131363e-10
-1.07191321623e-11
5.46902762278e-10
-1.40408663683e-11
5.52843649197e-10
-1.73527093978e-11
5.59875281444e-10
-2.06798256165e-11
5.68009119048e-10
-2.40444523921e-11
5.77261693453e-10
-2.74658807946e-11
5.87653622065e-10
-3.09602874968e-11
5.99208496729e-10
-3.45404066769e-11
6.11951602407e-10
-3.8215027938e-11
6.25908418034e-10
-4.19883053433e-11
6.41102849209e-10
-4.58588642107e-11
6.57555141006e-10
-4.98186979613e-11
6.75279422218e-10
-5.3851858397e-11
6.94280839504e-10
-5.79329617093e-11
7.14552255803e-10
-6.20255610236e-11
7.36070512606e-10
-6.60804765099e-11
7.58792295666e-10
-7.00342260089e-11
7.82649698747e-10
-7.38077609461e-11
8.07545653728e-10
-7.7305776856e-11
8.33349483268e-10
-8.04169229707e-11
8.59892929712e-10
-8.30152613445e-11
8.86967104203e-10
-8.49633002866e-11
9.14320864747e-10
-8.61168282672e-11
9.41661144051e-10
-8.63315967657e-11
9.68655690512e-10
-8.54716609927e-11
9.94938550816e-10
-8.34189316303e-11
1.02011842893e-09
-8.00832721087e-11
1.04378982734e-09
-7.54123233026e-11
1.06554663167e-09
-6.94001244132e-11
1.08499752278e-09
-6.2093472695e-11
1.10178227078e-09
-5.3594835275e-11
1.11558760762e-09
-4.40606514483e-11
1.12616111462e-09
-3.36942815466e-11
1.13332156855e-09
-2.27337649687e-11
1.13696456562e-09
-1.14357259088e-11
1.1370629411e-09
-5.77999751357e-14
1.13366238141e-09
1.11575159221e-11
1.12687346916e-09
2.19948551106e-11
1.11686188055e-09
3.22723421753e-11
1.10383837671e-09
4.18425477094e-11
1.08804969305e-09
5.05896020696e-11
1.06977072254e-09
5.84247021143e-11
1.04929783039e-09
6.52819324008e-11
1.02694284221e-09
7.11155421831e-11
1.00302719285e-09
7.58989990736e-11
9.778758427e-10
7.96254770157e-11
9.51810804003e-10
8.23090000153e-11
9.25144397997e-10
8.39852939722e-11
8.98172606545e-10
8.47115116767e-11
8.7116901853e-10
8.45643391045e-11
8.44379870309e-10
8.36364471454e-11
8.18020551752e-10
8.2031672497e-11
7.92273748746e-10
7.98595753044e-11
7.67289180508e-10
7.72300801043e-11
7.43184721012e-10
7.42487902612e-11
7.20048591453e-10
7.10133498122e-11
6.97942278764e-10
6.76109934586e-11
6.76903855259e-10
6.41172338026e-11
6.56951427906e-10
6.05955116369e-11
6.38086510645e-10
5.70975789739e-11
6.20297178473e-10
5.36643804447e-11
6.03560917368e-10
5.03272264184e-11
5.87847128932e-10
4.71090938324e-11
5.73119280278e-10
4.40259355977e-11
5.59336712105e-10
4.10879198986e-11
5.46456130701e-10
3.83005531968e-11
5.34432817331e-10
3.56656651339e-11
5.23221590554e-10
3.31822502465e-11
5.12777557258e-10
3.0847172274e-11
5.03056685512e-10
2.86557429602e-11
4.94016229729e-10
2.66021903535e-11
4.85615034436e-10
2.46800323898e-11
4.77813739817e-10
2.28823711941e-11
4.70574908055e-10
2.12021222717e-11
4.63863086747e-10
1.96321913347e-11
4.57644822192e-10
1.81656098292e-11
4.51888633212e-10
1.67956387993e-11
4.46564953409e-10
1.55158492834e-11
4.41646048285e-10
1.43201863808e-11
4.37105911457e-10
1.32030231068e-11
4.32920143304e-10
1.21592095268e-11
4.29065813709e-10
1.11841220291e-11
4.25521310151e-10
1.02737172891e-11
4.22266171348e-10
9.42459504866e-12
4.19280906929e-10
8.63407354237e-12
4.16546803566e-10
7.90028066492e-12
4.14045719709e-10
7.22226283846e-12
4.11759873172e-10
6.60011101241e-12
4.09671630808e-10
6.03509863818e-12
4.07763316462e-10
5.5298175018e-12
4.0601706543e-10
5.08828083068e-12
4.04414770177e-10
4.71593215121e-12
4.02938185442e-10
4.41944078259e-12
4.01569285169e-10
4.2060560392e-12
4.00290970457e-10
4.08208655312e-12
3.99088131974e-10
4.04969094443e-12
3.9794858306e-10
4.10054902242e-12
3.96861611326e-10
4.20454500545e-12
4.29381895152e-12
9.57518354719e-10
1.09260990044e-10
9.82433999046e-10
2.42977990422e-10
9.94795187846e-10
3.04605683066e-10
9.91864529945e-10
3.19429486687e-10
9.76794178726e-10
3.08865537e-10
9.53690986449e-10
2.86346923916e-10
9.26010800027e-10
2.59307034855e-10
8.96290082509e-10
2.31598032533e-10
8.66269170128e-10
2.05098721671e-10
8.37085338298e-10
1.80634362354e-10
8.09444882738e-10
1.58478890339e-10
7.83756173838e-10
1.38625600568e-10
7.602267446e-10
1.2093252227e-10
7.38932075478e-10
1.05200112443e-10
7.1986345684e-10
9.12121999035e-11
7.02960853107e-10
7.87568711194e-11
6.88135201481e-10
6.76363993327e-11
6.75283351714e-10
5.7671232706e-11
6.64297922545e-10
4.87008269115e-11
6.55073671327e-10
4.05828734257e-11
6.47511488037e-10
3.31917840067e-11
6.41520782839e-10
2.64169023748e-11
6.37020796842e-10
2.01606939028e-11
6.3394119918e-10
1.43370402141e-11
6.32222217599e-10
8.86969665705e-12
6.31814469522e-10
3.69093342357e-12
6.3267860465e-10
-1.25963807869e-12
6.34784826792e-10
-6.03605345255e-12
6.38112344239e-10
-1.06868147927e-11
6.42648774985e-10
-1.5255566359e-11
6.48389511578e-10
-1.97816058543e-11
6.55337045607e-10
-2.43002457221e-11
6.63500242178e-10
-2.8843023862e-11
6.72893547492e-10
-3.34377587161e-11
6.83536105839e-10
-3.81084394595e-11
6.95450756607e-10
-4.28749378416e-11
7.08662875986e-10
-4.77525248582e-11
7.23199023052e-10
-5.27511729761e-11
7.3908534496e-10
-5.78746243533e-11
7.56345692687e-10
-6.31192081062e-11
7.7499939682e-10
-6.84723972878e-11
7.95058654736e-10
-7.39111104633e-11
8.16525486684e-10
-7.93997867221e-11
8.39388232581e-10
-8.48882988336e-11
8.6361758539e-10
-9.03098200403e-11
8.89162195904e-10
-9.55788259893e-11
9.15943939695e-10
-1.00589492915e-10
9.43853013968e-10
-1.05214837959e-10
9.72743127957e-10
-1.0930702242e-10
1.00242716066e-09
-1.12699278101e-10
1.0326737675e-09
-1.1520988979e-10
1.06320549998e-09
-1.16648542068e-10
1.09369902697e-09
-1.16825103873e-10
1.12378798748e-09
-1.15560600637e-10
1.15306885389e-09
-1.12699776555e-10
1.18110996541e-09
-1.08124362035e-10
1.20746364541e-09
-1.01765982244e-10
1.23168106915e-09
-9.36175283752e-11
1.2533292712e-09
-8.37416570627e-11
1.27200931169e-09
-7.22748609768e-11
1.28737416002e-09
-5.94254885765e-11
1.29914446638e-09
-4.54645808739e-11
1.30712033418e-09
-3.07096302845e-11
1.31118762913e-09
-1.55030231598e-11
1.31131820057e-09
-1.88378569126e-13
1.30756447292e-09
1.49112315901e-11
1.30004994806e-09
2.95093633063e-11
1.28895779378e-09
4.33644753715e-11
1.27451956431e-09
5.6280752139e-11
1.25700531602e-09
6.81038219636e-11
1.23671543622e-09
7.87145509182e-11
1.21397383117e-09
8.80235046628e-11
1.18912182342e-09
9.59675161177e-11
1.16251209653e-09
1.02508691791e-10
1.13450220214e-09
1.07635337394e-10
1.10544744624e-09
1.11363722529e-10
1.07569332025e-09
1.13739387495e-10
1.04556794349e-09
1.14836857138e-10
1.01537514634e-09
1.14757106291e-10
9.85388809842e-10
1.13622755124e-10
9.55848906188e-10
1.11571549119e-10
9.26959427168e-10
1.08749028805e-10
8.98888127821e-10
1.05301355406e-10
8.7176781556e-10
1.01369079924e-10
8.45698807189e-10
9.70823369511e-11
8.20752153693e-10
9.25576270313e-11
7.96973269276e-10
8.78960995135e-11
7.7438567077e-10
8.31830925871e-11
7.52994611392e-10
7.84886218549e-11
7.32790465977e-10
7.38685103627e-11
7.13751784536e-10
6.93658932835e-11
6.95847976951e-10
6.50128877149e-11
6.79041623363e-10
6.08322762911e-11
6.63290426176e-10
5.68391049685e-11
6.48548831729e-10
5.30421362506e-11
6.34769356437e-10
4.9445129733e-11
6.21903653946e-10
4.60479427012e-11
6.09903359625e-10
4.28474571975e-11
5.98720746099e-10
3.98383476864e-11
5.88309220707e-10
3.70137075268e-11
5.78623691852e-10
3.43655535677e-11
5.69620827927e-10
3.18852279654e-11
5.61259228683e-10
2.95637148462e-11
5.53499525992e-10
2.739188782e-11
5.46304427745e-10
2.53607022966e-11
5.39638716323e-10
2.34613448476e-11
5.33469210561e-10
2.16853500395e-11
5.27764698446e-10
2.00246938395e-11
5.22495845869e-10
1.84718713426e-11
5.17635085653e-10
1.70199657033e-11
5.13156489693e-10
1.56627142189e-11
5.09035626517e-10
1.43945769556e-11
5.05249405756e-10
1.32108125381e-11
5.01775911185e-10
1.21075650745e-11
4.98594224092e-10
1.10819649367e-11
4.95684239988e-10
1.01322443426e-11
4.93026483363e-10
9.25786525293e-12
4.90601928515e-10
8.45965133122e-12
4.8839183886e-10
7.73990524087e-12
4.86377643635e-10
7.10247441296e-12
4.84540878205e-10
6.55269624352e-12
4.82863220572e-10
6.09709744196e-12
4.81326652348e-10
5.74262370462e-12
4.79913730341e-10
5.49500846673e-12
4.7860779259e-10
5.35562904639e-12
4.77392426747e-10
5.31591544467e-12
4.76248397436e-10
5.34857489324e-12
5.39710742145e-12
9.5289388503e-10
9.38671003246e-11
9.7635415476e-10
2.19517711277e-10
9.93534637497e-10
2.87425191077e-10
9.99729825266e-10
3.13234289714e-10
9.95574327191e-10
3.13021025681e-10
9.83481660615e-10
2.98439580999e-10
9.65996285752e-10
2.76792400211e-10
9.45251668735e-10
2.52342640072e-10
9.22878769147e-10
2.27471611834e-10
9.00063226705e-10
2.03449895439e-10
8.77636335374e-10
1.80905772389e-10
8.56161220946e-10
1.60100705802e-10
8.36003859697e-10
1.41089874426e-10
8.17388298135e-10
1.23815665025e-10
8.0043834081e-10
1.0816214838e-10
7.85208479582e-10
9.39867236473e-11
7.71706568524e-10
8.11383018607e-11
7.59910288886e-10
6.94675040064e-11
7.49778998742e-10
5.88321089311e-11
7.41262181189e-10
4.90996830931e-11
7.34305401631e-10
4.01485559428e-11
7.28854450606e-10
3.18678460667e-11
7.24858171004e-10
2.41569664849e-11
7.22270335399e-10
1.69248691393e-11
7.21050839928e-10
1.00891858159e-11
7.2116640753e-10
3.57535990288e-12
7.22590939008e-10
-2.68417505422e-12
7.25305602926e-10
-8.75072242068e-12
7.29298743482e-10
-1.4679959922e-11
7.34565645289e-10
-2.05224722351e-11
7.41108178968e-10
-2.63241430683e-11
7.48934341331e-10
-3.21264110544e-11
7.58057692061e-10
-3.7966376962e-11
7.68496679325e-10
-4.38767477171e-11
7.80273838497e-10
-4.98855996942e-11
7.93414840858e-10
-5.60159405489e-11
8.07947362316e-10
-6.22850458977e-11
8.23899735923e-10
-6.87035453488e-11
8.41299346216e-10
-7.52742325372e-11
8.60170718713e-10
-8.19905775592e-11
8.80533254727e-10
-8.88349292586e-11
9.02398561348e-10
-9.57764119764e-11
9.25767330423e-10
-1.02768549558e-10
9.50625731431e-10
-1.09746692407e-10
9.7694130431e-10
-1.16625384225e-10
1.00465837427e-09
-1.23295885939e-10
1.03369306597e-09