/*--------------------------------*- C++ -*----------------------------------*\
  =========                 |
  \\      /  F ield         | OpenFOAM: The Open Source CFD Toolbox
   \\    /   O peration     | Website:  https://openfoam.org
    \\  /    A nd           | Version:  7
     \\/     M anipulation  |
\*---------------------------------------------------------------------------*/
FoamFile
{
    version     2.0;
    format      ascii;
    class       volVectorField;
    location    "2220";
    object      U;
}
// * * * * * * * * * * * * * * * * * * * * * * * * * * * * * * * * * * * * * //

dimensions      [0 1 -1 0 0 0 0];

internalField   nonuniform List<vector> 
8192
(
(0.00104347301918 0.000156526980819 0)
(0.000759358184995 0.000127587851529 0)
(0.000549377472288 8.23928574215e-05 0)
(0.000414125882769 5.28587282211e-05 0)
(0.000326297131694 3.49700188015e-05 0)
(0.00026724233367 2.40847749486e-05 0)
(0.000225899097876 1.72584564503e-05 0)
(0.000195832631851 1.28080051465e-05 0)
(0.000173237267439 9.78735486058e-06 0)
(0.000155792120754 7.65778747984e-06 0)
(0.00014202987106 6.10445795684e-06 0)
(0.000130988034787 4.93737416649e-06 0)
(0.000122012755562 4.03790103046e-06 0)
(0.00011464545131 3.32939933102e-06 0)
(0.000108555319183 2.76072905816e-06 0)
(0.000103497862707 2.29672385039e-06 0)
(9.92886065546e-05 1.91252892352e-06 0)
(9.57859384545e-05 1.5901360074e-06 0)
(9.28795975873e-05 1.31620192228e-06 0)
(9.04827550927e-05 1.08063789134e-06 0)
(8.85264407738e-05 8.75674027876e-07 0)
(8.69555403352e-05 6.95224320098e-07 0)
(8.57258680923e-05 5.3444616857e-07 0)
(8.48019917806e-05 3.89428755054e-07 0)
(8.41555935837e-05 2.56968448999e-07 0)
(8.37642203363e-05 1.34404232471e-07 0)
(8.36103207615e-05 1.94952333954e-08 0)
(8.36804974959e-05 -8.96715869406e-08 0)
(8.39649212291e-05 -1.94751244972e-07 0)
(8.44568682164e-05 -2.97194287774e-07 0)
(8.51523529787e-05 -3.98288436355e-07 0)
(8.60498339538e-05 -4.9918988436e-07 0)
(8.71499732858e-05 -6.0094614757e-07 0)
(8.84554349137e-05 -7.04511503278e-07 0)
(8.99707066491e-05 -8.10755550093e-07 0)
(9.17019323994e-05 -9.20464783694e-07 0)
(9.36567401759e-05 -1.03433681673e-06 0)
(9.58440503109e-05 -1.15296635602e-06 0)
(9.82738463585e-05 -1.27682192202e-06 0)
(0.000100956888814 -1.4062119353e-06 0)
(0.000103904349154 -1.54123896156e-06 0)
(0.0001071273394 -1.68174098246e-06 0)
(0.000110636310996 -1.82721944662e-06 0)
(0.000114440297405 -1.97675492323e-06 0)
(0.000118545978667 -2.12891343007e-06 0)
(0.000122956555027 -2.28164915806e-06 0)
(0.000127670432027 -2.43221321847e-06 0)
(0.00013267974259 -2.57708188816e-06 0)
(0.000137968762626 -2.71192188887e-06 0)
(0.000143512313855 -2.83161231673e-06 0)
(0.000149274286566 -2.93034267017e-06 0)
(0.000155206449297 -3.00180172286e-06 0)
(0.000161247733498 -3.03946365957e-06 0)
(0.000167324182027 -3.03696575043e-06 0)
(0.00017334972636 -2.98855940701e-06 0)
(0.000179227909322 -2.88960463454e-06 0)
(0.000184854600937 -2.73706869214e-06 0)
(0.000190121667049 -2.52998018424e-06 0)
(0.000194921442799 -2.2697798362e-06 0)
(0.000199151736426 -1.96050000952e-06 0)
(0.000202720955274 -1.60870741527e-06 0)
(0.000205552838303 -1.22316689121e-06 0)
(0.000207590244681 -8.14233737297e-07 0)
(0.000208797526491 -3.93045491299e-07 0)
(0.000209161213183 2.93580743065e-08 0)
(0.000208689021015 4.42829977633e-07 0)
(0.000207407507658 8.3867582361e-07 0)
(0.000205358911055 1.20990979601e-06 0)
(0.000202597761362 1.55122557147e-06 0)
(0.000199187755301 1.85876300538e-06 0)
(0.000195199176771 2.12979518026e-06 0)
(0.000190706910615 2.36244816696e-06 0)
(0.000185788915203 2.55552244457e-06 0)
(0.000180524930869 2.70843559794e-06 0)
(0.00017499520408 2.82126390903e-06 0)
(0.000169279077697 2.89483466136e-06 0)
(0.000163453403646 2.93081145159e-06 0)
(0.000157590841669 2.93172279532e-06 0)
(0.000151758187572 2.90090404869e-06 0)
(0.00014601490781 2.84234913892e-06 0)
(0.000140412040998 2.76049192187e-06 0)
(0.000134991571817 2.6599524278e-06 0)
(0.00012978630911 2.54528643054e-06 0)
(0.000124820229071 2.42077076903e-06 0)
(0.000120109192241 2.29024424527e-06 0)
(0.000115661916223 2.15701097187e-06 0)
(0.000111481083663 2.02380178905e-06 0)
(0.00010756448014 1.89278291396e-06 0)
(0.00010390608144 1.76559791955e-06 0)
(0.000100497036731 1.64342984777e-06 0)
(9.73265186968e-05 1.52707214314e-06 0)
(9.43824310623e-05 1.4170003163e-06 0)
(9.16519776165e-05 1.31343879609e-06 0)
(8.91221051908e-05 1.21642010944e-06 0)
(8.67798373338e-05 1.12583501492e-06 0)
(8.46125166564e-05 1.04147369006e-06 0)
(8.26079732176e-05 9.63058510806e-07 0)
(8.07546345859e-05 8.90269589978e-07 0)
(7.90415910443e-05 8.22764101104e-07 0)
(7.74586270975e-05 7.60190646816e-07 0)
(7.59962282992e-05 7.02199575925e-07 0)
(7.46455704777e-05 6.48450263067e-07 0)
(7.33984968169e-05 5.98615978306e-07 0)
(7.22474868718e-05 5.52387078955e-07 0)
(7.11856205012e-05 5.09472904628e-07 0)
(7.02065387853e-05 4.69602893257e-07 0)
(6.93044032786e-05 4.32527133884e-07 0)
(6.84738543267e-05 3.98016746135e-07 0)
(6.77099686655e-05 3.6586422213e-07 0)
(6.70082160227e-05 3.3588407831e-07 0)
(6.63644139669e-05 3.07913959614e-07 0)
(6.57746796921e-05 2.81816597362e-07 0)
(6.52353767706e-05 2.57482884463e-07 0)
(6.47430540306e-05 2.34836674175e-07 0)
(6.42943725155e-05 2.13841900769e-07 0)
(6.38860147441e-05 1.94513157455e-07 0)
(6.35145679084e-05 1.769311811e-07 0)
(6.3176368671e-05 1.61265767307e-07 0)
(6.28672909303e-05 1.47809889397e-07 0)
(6.2582447652e-05 1.37031511255e-07 0)
(6.23157607613e-05 1.29653715974e-07 0)
(6.20593243019e-05 1.26781307816e-07 0)
(6.18024387373e-05 1.30103067693e-07 0)
(6.1530124512e-05 1.42210232853e-07 0)
(6.12208605669e-05 1.67053057734e-07 0)
(6.0843496142e-05 2.10310972877e-07 0)
(6.03549802053e-05 2.78204874614e-07 0)
(5.97198400273e-05 3.56935475504e-07 0)
(0.00121018388954 0.000302870070427 0)
(0.00116035485249 0.000315188625799 0)
(0.00102701810125 0.000238109535519 0)
(0.000887632267437 0.000171779461417 0)
(0.000767012595174 0.000124497696327 0)
(0.000668633560679 9.19909168102e-05 0)
(0.000589794332202 6.95347654932e-05 0)
(0.00052667344868 5.37190322648e-05 0)
(0.000475838334021 4.23067935431e-05 0)
(0.000434557399861 3.38644165797e-05 0)
(0.00040074757498 2.74698906455e-05 0)
(0.000372840213305 2.25211269692e-05 0)
(0.000349652858387 1.86167702885e-05 0)
(0.000330287537537 1.54831435145e-05 0)
(0.000314055343002 1.29293003461e-05 0)
(0.000300421922435 1.08190189382e-05 0)
(0.000288968352985 9.05304935228e-06 0)
(0.000279362985308 7.55764191375e-06 0)
(0.000271341028471 6.27698499023e-06 0)
(0.00026468959763 5.16812021477e-06 0)
(0.000259236639305 4.19745726134e-06 0)
(0.000254842633921 3.33834076264e-06 0)
(0.000251394308811 2.56932195139e-06 0)
(0.000248799823422 1.87291065052e-06 0)
(0.000246985045111 1.23466022913e-06 0)
(0.000245890642053 6.42487203256e-07 0)
(0.000245469794759 8.61589430885e-08 0)
(0.000245686380116 -4.43096119419e-07 0)
(0.000246513517996 -9.52885512998e-07 0)
(0.000247932397115 -1.44988167844e-06 0)
(0.000249931316428 -1.93999895439e-06 0)
(0.000252504890006 -2.42852594533e-06 0)
(0.000255653371045 -2.92022059343e-06 0)
(0.000259382056407 -3.41937220964e-06 0)
(0.000263700735988 -3.92983227262e-06 0)
(0.000268623152025 -4.45501383463e-06 0)
(0.000274166432482 -4.99785779128e-06 0)
(0.00028035046035 -5.56076291446e-06 0)
(0.00028719713733 -6.14547560524e-06 0)
(0.000294729496606 -6.75293482814e-06 0)
(0.000302970615838 -7.38306807727e-06 0)
(0.000311942279486 -8.03453575841e-06 0)
(0.000321663340434 -8.70442475674e-06 0)
(0.000332147736953 -9.38789761969e-06 0)
(0.000343402134785 -1.00778124508e-05 0)
(0.000355423188405 -1.07643403085e-05 0)
(0.00036819445296 -1.1434621424e-05 0)
(0.000381683030373 -1.20725171303e-05 0)
(0.000395836098743 -1.26585282981e-05 0)
(0.00041057754905 -1.31699586053e-05 0)
(0.000425805027914 -1.35813972599e-05 0)
(0.000441387746639 -1.38655763524e-05 0)
(0.000457165448959 -1.39946222346e-05 0)
(0.000472948919033 -1.39416719986e-05 0)
(0.000488522349156 -1.36827741756e-05 0)
(0.000503647774081 -1.31989456358e-05 0)
(0.000518071622277 -1.24782178493e-05 0)
(0.000531533241242 -1.15174701526e-05 0)
(0.000543775027883 -1.03238112749e-05 0)
(0.000554553543769 -8.91524326899e-06 0)
(0.000563650746547 -7.32035820397e-06 0)
(0.000570884283881 -5.57691699613e-06 0)
(0.000576115757493 -3.72935293257e-06 0)
(0.000579256038424 -1.82548760362e-06 0)
(0.00058026710827 8.70354971161e-08 0)
(0.000579160446214 1.96398885799e-06 0)
(0.000575992552797 3.76689597961e-06 0)
(0.000570858615807 5.46418583157e-06 0)
(0.000563885442035 7.03122634339e-06 0)
(0.000555224613263 8.44954186449e-06 0)
(0.000545046459864 9.70568552305e-06 0)
(0.000533535019562 1.0790195295e-05 0)
(0.000520883811698 1.16969047572e-05 0)
(0.000507292079591 1.24226924857e-05 0)
(0.000492961139181 1.2967594951e-05 0)
(0.00047809058433 1.33351047843e-05 0)
(0.000462874281586 1.35324383047e-05 0)
(0.000447496278305 1.35705824738e-05 0)
(0.00043212689301 1.34640067859e-05 0)
(0.000416919319682 1.32300247458e-05 0)
(0.000402007049893 1.28878807306e-05 0)
(0.000387502316224 1.24576970549e-05 0)
(0.000373495622852 1.19594313594e-05 0)
(0.000360056293369 1.14119717738e-05 0)
(0.000347233861551 1.08324512354e-05 0)
(0.000335060072402 1.02358113884e-05 0)
(0.000323551247925 9.63460348469e-06 0)
(0.000312710794408 9.03898609246e-06 0)
(0.000302531671418 8.45686694327e-06 0)
(0.000292998693772 7.89413628442e-06 0)
(0.000284090586815 7.35494631397e-06 0)
(0.000275781756535 6.842002102e-06 0)
(0.000268043767199 6.35684018223e-06 0)
(0.000260846540376 5.9000806286e-06 0)
(0.000254159301962 5.47164561745e-06 0)
(0.000247951309931 5.07094276368e-06 0)
(0.000242192397157 4.69701465948e-06 0)
(0.000236853362192 4.34865801166e-06 0)
(0.000231906237806 4.02451646825e-06 0)
(0.000227324463191 3.72315150952e-06 0)
(0.000223082981662 3.44309543252e-06 0)
(0.000219158281773 3.18289014703e-06 0)
(0.000215528396222 2.9411148886e-06 0)
(0.000212172869817 2.71640556502e-06 0)
(0.000209072705132 2.50746789615e-06 0)
(0.000206210292233 2.31308622551e-06 0)
(0.000203569326975 2.13212947734e-06 0)
(0.000201134720755 1.96355560251e-06 0)
(0.000198892503229 1.80641561725e-06 0)
(0.000196829718214 1.65985836499e-06 0)
(0.000194934311792 1.52313706379e-06 0)
(0.000193195010392 1.39561890631e-06 0)
(0.000191601185266 1.27679912716e-06 0)
(0.000190142698241 1.16632141665e-06 0)
(0.000188809721751 1.06400705727e-06 0)
(0.00018759252396 9.69896097685e-07 0)
(0.000186481207133 8.84305056183e-07 0)
(0.000185465384467 8.0790755348e-07 0)
(0.000184533777855 7.41846822941e-07 0)
(0.000183673717978 6.87892726295e-07 0)
(0.000182870532892 6.48660131273e-07 0)
(0.000182106832316 6.27908292286e-07 0)
(0.000181361759065 6.30932036116e-07 0)
(0.000180610454381 6.64998148564e-07 0)
(0.000179824448427 7.39533900946e-07 0)
(0.000178974852188 8.64790461015e-07 0)
(0.000178043717865 1.04337592683e-06 0)
(0.000177047331948 1.2232911021e-06 0)
(0.00122478223061 0.000267903946694 0)
(0.00124107091852 0.000383695086814 0)
(0.00119611912571 0.000347891601843 0)
(0.00111326088509 0.000284241452411 0)
(0.00102011708055 0.000225799164446 0)
(0.000930391580115 0.00017879396543 0)
(0.000849518702038 0.000142443805047 0)
(0.000778896543101 0.000114553016822 0)
(0.000718160075272 9.30443732991e-05 0)
(0.000666286651842 7.62811765137e-05 0)
(0.000622100004763 6.3049585123e-05 0)
(0.000584481622762 5.24671590334e-05 0)
(0.000552445783696 4.38939155445e-05 0)
(0.000525154232569 3.68628541045e-05 0)
(0.000501906372907 3.10296284169e-05 0)
(0.000482121332202 2.61371372678e-05 0)
(0.000465318981309 2.1990837233e-05 0)
(0.000451102675492 1.84415142154e-05 0)
(0.000439144548821 1.53731837915e-05 0)
(0.000429173375318 1.26945143526e-05 0)
(0.000420964705406 1.03326810474e-05 0)
(0.000414332908448 8.22891020047e-06 0)
(0.000409124767565 6.33521068067e-06 0)
(0.000405214320752 4.6119476982e-06 0)
(0.000402498695967 3.0260213573e-06 0)
(0.000400894737031 1.54948476346e-06 0)
(0.00040033625823 1.58485893827e-07 0)
(0.0004007717985 -1.16754844662e-06 0)
(0.000402162770613 -2.44654098959e-06 0)
(0.000404481922086 -3.6942525535e-06 0)
(0.000407712039801 -4.92465871382e-06 0)
(0.000411844838675 -6.15022998353e-06 0)
(0.000416879981747 -7.3821296513e-06 0)
(0.00042282418372 -8.63033700899e-06 0)
(0.000429690351799 -9.90369909998e-06 0)
(0.000437496717608 -1.12099101713e-05 0)
(0.000446265912135 -1.25554150228e-05 0)
(0.000456023932654 -1.3945229838e-05 0)
(0.00046679894675 -1.53826726403e-05 0)
(0.000478619874756 -1.68689950055e-05 0)
(0.000491514689072 -1.84029083762e-05 0)
(0.000505508368512 -1.99800024321e-05 0)
(0.000520620449955 -2.15920612878e-05 0)
(0.000536862130817 -2.32262961979e-05 0)
(0.000554232897179 -2.48645327152e-05 0)
(0.000572716687203 -2.64824152742e-05 0)
(0.000592277650313 -2.80487226965e-05 0)
(0.000612855631203 -2.9524919788e-05 0)
(0.000634361592038 -3.08650976543e-05 0)
(0.000656673280675 -3.20164683697e-05 0)
(0.00067963154515 -3.2920568676e-05 0)
(0.000703037768355 -3.3515282804e-05 0)
(0.00072665293124 -3.37377156416e-05 0)
(0.000750198790203 -3.3527841831e-05 0)
(0.000773361564325 -3.28327434172e-05 0)
(0.00079579837275 -3.1611146498e-05 0)
(0.00081714645289 -2.98378854954e-05 0)
(0.000837034938738 -2.75078525041e-05 0)
(0.000855098691736 -2.4638920362e-05 0)
(0.000870993362055 -2.12732802987e-05 0)
(0.000884410546491 -1.74766777146e-05 0)
(0.000895091675565 -1.33352436824e-05 0)
(0.000902839213173 -8.95002850559e-06 0)
(0.000907523973915 -4.42985654589e-06 0)
(0.000909087866391 1.16427113616e-07 0)
(0.00090754206815 4.58703019136e-06 0)
(0.000902961370571 8.89240597751e-06 0)
(0.000895475972584 1.29579591225e-05 0)
(0.000885262167826 1.67243685206e-05 0)
(0.000872533160701 2.01461621945e-05 0)
(0.000857530780066 2.31895169308e-05 0)
(0.000840518324379 2.58301703732e-05 0)
(0.000821774356125 2.80520109186e-05 0)
(0.000801587047097 2.98465290304e-05 0)
(0.000780248658833 3.12129867905e-05 0)
(0.000758049878206 3.21589477496e-05 0)
(0.000735273949883 3.27007265807e-05 0)
(0.000712190780673 3.28633686838e-05 0)
(0.000689051367349 3.26799237479e-05 0)
(0.000666082973905 3.21899821939e-05 0)
(0.000643485444871 3.14376331785e-05 0)
(0.000621428911162 3.04691266995e-05 0)
(0.000600052968881 2.93305558254e-05 0)
(0.000579467238424 2.80658294669e-05 0)
(0.000559753078387 2.67151113424e-05 0)
(0.000540966153598 2.53137948133e-05 0)
(0.000523139538506 2.38919927722e-05 0)
(0.000506287063114 2.24744622932e-05 0)
(0.00049040666134 2.1080855405e-05 0)
(0.000475483544878 1.97261850289e-05 0)
(0.000461493087264 1.84214083238e-05 0)
(0.000448403355728 1.7174051062e-05 0)
(0.000436177269571 1.59888187382e-05 0)
(0.000424774392909 1.48681603436e-05 0)
(0.000414152388362 1.38127663179e-05 0)
(0.000404268168506 1.28219939783e-05 0)
(0.000395078786118 1.1894221111e-05 0)
(0.000386542104269 1.10271332607e-05 0)
(0.000378617284693 1.02179523529e-05 0)
(0.000371265128925 9.46361536558e-06 0)
(0.000364448302056 8.76091141644e-06 0)
(0.000358131464305 8.10658522168e-06 0)
(0.000352281331202 7.49741376072e-06 0)
(0.00034686667911 6.93026224598e-06 0)
(0.000341858309358 6.40212436524e-06 0)
(0.0003372289811 5.91015117383e-06 0)
(0.000332953320457 5.45167213573e-06 0)
(0.000329007711164 5.02421150468e-06 0)
(0.000325370170026 4.62550267042e-06 0)
(0.000322020208706 4.25350309087e-06 0)
(0.000318938681796 3.90641218208e-06 0)
(0.000316107619643 3.58269484634e-06 0)
(0.00031351004298 3.28111340563e-06 0)
(0.000311129755076 3.00077136276e-06 0)
(0.000308951105921 2.74117287134e-06 0)
(0.000306958722086 2.50230280896e-06 0)
(0.000305137195842 2.28473308016e-06 0)
(0.000303470728718 2.08976174008e-06 0)
(0.000301942729831 1.91959132751e-06 0)
(0.000300535381434 1.77755049486e-06 0)
(0.000299229210116 1.66835362751e-06 0)
(0.000298002754813 1.59836647128e-06 0)
(0.000296832526307 1.57577242357e-06 0)
(0.000295693650095 1.61033655632e-06 0)
(0.000294561934823 1.7119158338e-06 0)
(0.000293418669643 1.8852701863e-06 0)
(0.000292259207773 2.11349333037e-06 0)
(0.000291099416852 2.30935154672e-06 0)
(0.00122191506576 0.000221206646357 0)
(0.00125332196048 0.000382696791288 0)
(0.00125087887482 0.000396284757356 0)
(0.00121301802072 0.000356567373035 0)
(0.00115476478553 0.000304870264506 0)
(0.00108852691427 0.00025568621756 0)
(0.00102178257883 0.000213168746754 0)
(0.000958496915495 0.00017773587772 0)
(0.000900498977367 0.000148595898834 0)
(0.000848411947808 0.000124690084668 0)
(0.00080221779442 0.000105021458427 0)
(0.000761583350378 8.87480931078e-05 0)
(0.000726042124443 7.51900282e-05 0)
(0.000695092109131 6.38082900673e-05 0)
(0.000668245860412 5.41782835186e-05 0)
(0.000645054026488 4.59653400487e-05 0)
(0.000625114460217 3.89045355036e-05 0)
(0.000608073770135 3.27847964417e-05 0)
(0.000593625129078 2.74366546748e-05 0)
(0.000581504431954 2.27229003468e-05 0)
(0.00057148591962 1.85314645005e-05 0)
(0.000563377841244 1.47699903221e-05 0)
(0.000557018426725 1.13616753281e-05 0)
(0.000552272277672 8.24206950439e-06 0)
(0.0005490271994 5.35659450738e-06 0)
(0.000547191453128 2.65861012944e-06 0)
(0.000546691387549 1.07899716567e-07 0)
(0.000547469400796 -2.33051937825e-06 0)
(0.000549482181202 -4.68732447981e-06 0)
(0.000552699179988 -6.98961943693e-06 0)
(0.000557101270065 -9.26149785833e-06 0)
(0.00056267954379 -1.15244597006e-05 0)
(0.000569434205369 -1.3797698786e-05 0)
(0.000577373513527 -1.60982700513e-05 0)
(0.000586512728811 -1.84411392253e-05 0)
(0.000596873017553 -2.08391120701e-05 0)
(0.000608480261162 -2.33026363183e-05 0)
(0.000621363715402 -2.5839465861e-05 0)
(0.000635554459987 -2.84541752784e-05 0)
(0.000651083575049 -3.1147512762e-05 0)
(0.000667979978839 -3.391558333e-05 0)
(0.000686267861936 -3.67488618341e-05 0)
(0.000705963659481 -3.96310498564e-05 0)
(0.000727072517168 -4.25378122769e-05 0)
(0.000749584232153 -4.54354611717e-05 0)
(0.00077346869028 -4.82796952223e-05 0)
(0.000798670878987 -5.10145518875e-05 0)
(0.000825105632781 -5.35717796881e-05 0)
(0.000852652363593 -5.58708809551e-05 0)
(0.000881150135382 -5.78200943117e-05 0)
(0.00091039354791 -5.93185660271e-05 0)
(0.000940129978798 -6.02598836414e-05 0)
(0.000970058771629 -6.05370129316e-05 0)
(0.000999832928666 -6.00485019874e-05 0)
(0.00102906375739 -5.87056275551e-05 0)
(0.00105732873473 -5.64399907677e-05 0)
(0.00108418260894 -5.32109408472e-05 0)
(0.00110917147553 -4.90120990186e-05 0)
(0.00113184924486 -4.38761513685e-05 0)
(0.00115179556409 -3.78770013238e-05 0)
(0.0011686338864 -3.11284345299e-05 0)
(0.00118204808273 -2.37787931007e-05 0)
(0.00119179590416 -1.60018295164e-05 0)
(0.00119771784463 -7.98475926381e-06 0)
(0.00119974054546 8.47224965257e-08 0)
(0.00119787472218 8.03033063381e-06 0)
(0.00119220848855 1.569599941e-05 0)
(0.00118289762536 2.29505782019e-05 0)
(0.00117015454907 2.96885711333e-05 0)
(0.00115423745823 3.58279885512e-05 0)
(0.00113544053824 4.13069139739e-05 0)
(0.00111408545405 4.60802294119e-05 0)
(0.00109051388123 5.01174043925e-05 0)
(0.00106508059666 5.34016375745e-05 0)
(0.00103814665157 5.59301185973e-05 0)
(0.00101007232081 5.7714834269e-05 0)
(0.000981209788258 5.87832089561e-05 0)
(0.000951895803538 5.91779502253e-05 0)
(0.000922444750454 5.89557212254e-05 0)
(0.000893142647751 5.81845965638e-05 0)
(0.000864242546008 5.69405686771e-05 0)
(0.000835961620343 5.53035732185e-05 0)
(0.000808480043721 5.33535544753e-05 0)
(0.000781941519613 5.11670152538e-05 0)
(0.000756455199045 4.88143395777e-05 0)
(0.00073209862373 4.63580035406e-05 0)
(0.000708921320686 4.385164236e-05 0)
(0.000686948707127 4.13398450215e-05 0)
(0.000666186026826 3.88585011678e-05 0)
(0.000646622111758 3.64355201298e-05 0)
(0.000628232832722 3.40917619968e-05 0)
(0.000610984162246 3.18420541942e-05 0)
(0.000594834819444 2.96962019218e-05 0)
(0.00057973849975 2.76599333302e-05 0)
(0.000565645714233 2.57357455729e-05 0)
(0.000552505275801 2.39236374638e-05 0)
(0.000540265475488 2.22217269631e-05 0)
(0.000528874993159 2.0626760323e-05 0)
(0.000518283585087 1.91345236884e-05 0)
(0.000508442587211 1.77401703487e-05 0)
(0.000499305268377 1.64384766477e-05 0)
(0.000490827063046 1.52240393261e-05 0)
(0.000482965708292 1.40914254201e-05 0)
(0.000475681305538 1.30352848949e-05 0)
(0.00046893632356 1.20504343707e-05 0)
(0.000462695555815 1.11319194612e-05 0)
(0.000456926042132 1.02750617387e-05 0)
(0.000451596962192 9.47549588366e-06 0)
(0.000446679505965 8.72920150426e-06 0)
(0.000442146724327 8.03253408069e-06 0)
(0.000437973361395 7.38225884367e-06 0)
(0.000434135668671 6.775591748e-06 0)
(0.000430611199926 6.21025141722e-06 0)
(0.000427378584906 5.68452655018e-06 0)
(0.00042441727962 5.19736312838e-06 0)
(0.000421707291512 4.74847620071e-06 0)
(0.000419228879731 4.33849010634e-06 0)
(0.000416962235203 3.96910944543e-06 0)
(0.00041488715377 3.64331772855e-06 0)
(0.000412982731318 3.36558947849e-06 0)
(0.00041122713688 3.14207575195e-06 0)
(0.000409597564751 2.98066803661e-06 0)
(0.000408070537824 2.89072354985e-06 0)
(0.000406622835092 2.881962709e-06 0)
(0.000405233419178 2.96142036343e-06 0)
(0.000403886620142 3.1258304154e-06 0)
(0.000402575447511 3.34356880505e-06 0)
(0.000401297435249 3.5170804767e-06 0)
(0.00121690700338 0.000182384572595 0)
(0.00124896454815 0.00035805441066 0)
(0.00126536611425 0.000406968637126 0)
(0.00125530453136 0.000393805909881 0)
(0.00122456177115 0.000356627702297 0)
(0.00118145401284 0.000313274388131 0)
(0.00113253646341 0.000271242439656 0)
(0.00108218891465 0.000233295375519 0)
(0.00103310246449 0.000200120768024 0)
(0.000986810805816 0.000171543882606 0)
(0.000944098688803 0.000147073910017 0)
(0.000905284450522 0.00012614430325 0)
(0.000870406507159 0.000108212967091 0)
(0.000839343184329 9.27986694278e-05 0)
(0.000811888193873 7.94891238667e-05 0)
(0.000787797274156 6.79372343581e-05 0)
(0.000766816360702 5.78531024777e-05 0)
(0.000748698064091 4.89951983265e-05 0)
(0.000733210827307 4.11621134733e-05 0)
(0.000720143558238 3.41853913321e-05 0)
(0.000709307512733 2.79235157683e-05 0)
(0.000700536548295 2.22569671816e-05 0)
(0.000693686449872 1.70841977017e-05 0)
(0.000688633762492 1.23183709132e-05 0)
(0.000685274396042 7.88472630884e-06 0)
(0.000683522159932 3.71845042011e-06 0)
(0.000683307317129 -2.37041178513e-07 0)
(0.00068457520243 -4.03148463138e-06 0)
(0.000687284922173 -7.70886550765e-06 0)
(0.000691408139255 -1.13082988579e-05 0)
(0.00069692793193 -1.48647041382e-05 0)
(0.000703837703344 -1.84092997926e-05 0)
(0.00071214011561 -2.19699319751e-05 0)
(0.000721846016315 -2.55712432796e-05 0)
(0.000732973320001 -2.92346805564e-05 0)
(0.000745545801931 -3.29783349477e-05 0)
(0.000759591756028 -3.68166025433e-05 0)
(0.000775142463448 -4.07596504619e-05 0)
(0.000792230413082 -4.48126717411e-05 0)
(0.000810887211035 -4.89749137441e-05 0)
(0.000831141113737 -5.32384707648e-05 0)
(0.000853014120464 -5.75868435521e-05 0)
(0.000876518567502 -6.19932893728e-05 0)
(0.000901653180996 -6.64190178305e-05 0)
(0.000928398571781 -7.08113324435e-05 0)
(0.000956712197294 -7.51018757442e-05 0)
(0.000986522876425 -7.92052044021e-05 0)
(0.00101772502558 -8.30179923301e-05 0)
(0.00105017288768 -8.64192204112e-05 0)
(0.00108367514431 -8.92717394911e-05 0)
(0.00111799042171 -9.14255641242e-05 0)
(0.00115282430013 -9.27231455579e-05 0)
(0.00118782848563 -9.30066777951e-05 0)
(0.00122260277412 -9.21272294399e-05 0)
(0.00125670031445 -8.99552151499e-05 0)
(0.00128963646704 -8.63914794206e-05 0)
(0.00132090128402 -8.13780914226e-05 0)
(0.00134997533377 -7.49078161073e-05 0)
(0.00137634825885 -6.703108497e-05 0)
(0.00139953906788 -5.78591588605e-05 0)
(0.00141911672218 -4.75622245309e-05 0)
(0.00143471918223 -3.63616397129e-05 0)
(0.00144606891723 -2.4516529786e-05 0)
(0.00145298312587 -1.23062094119e-05 0)
(0.0014553776043 -1.10191783678e-08 0)
(0.00145326420641 1.2105269513e-05 0)
(0.00144674294437 2.38085208593e-05 0)
(0.00143599062381 3.49011941071e-05 0)
(0.00142124816464 4.52234339186e-05 0)
(0.00140280836465 5.46499505403e-05 0)
(0.00138100506598 6.3085096739e-05 0)
(0.00135620387388 7.04582429033e-05 0)
(0.00132879403046 7.67207227837e-05 0)
(0.00129918082244 8.1844724839e-05 0)
(0.00126777794275 8.58237681387e-05 0)
(0.00123499945389 8.86739166521e-05 0)
(0.00120125132928 9.04346973706e-05 0)
(0.00116692288291 9.11688086931e-05 0)
(0.00113237864005 9.09600772416e-05 0)
(0.00109795128886 8.99096161498e-05 0)
(0.00106393627012 8.81305947054e-05 0)
(0.00103058835232 8.5742319341e-05 0)
(0.000998120274723 8.28643948454e-05 0)
(0.000966703296973 7.96116125588e-05 0)
(0.000936469319977 7.60899791053e-05 0)
(0.000907514156938 7.23940449573e-05 0)
(0.000879901525774 6.86054809171e-05 0)
(0.000853667381225 6.47927133544e-05 0)
(0.000828824280673 6.10113653298e-05 0)
(0.000805365561036 5.73052450222e-05 0)
(0.000783269181338 5.37076527516e-05 0)
(0.000762501149632 5.02428249707e-05 0)
(0.000743018501894 4.69273833522e-05 0)
(0.000724771835126 4.37717022408e-05 0)
(0.000707707419396 4.07811439035e-05 0)
(0.00069176892674 3.79571382448e-05 0)
(0.000676898821046 3.52981021585e-05 0)
(0.0006630394546 3.28002057394e-05 0)
(0.000650133915373 3.04579991972e-05 0)
(0.000638126665754 2.82649176721e-05 0)
(0.000626964009065 2.62136818173e-05 0)
(0.000616594415522 2.42966115526e-05 0)
(0.000606968734638 2.25058688235e-05 0)
(0.000598040316674 2.08336435892e-05 0)
(0.000589765061721 1.92722952877e-05 0)
(0.000582101411459 1.78144604511e-05 0)
(0.000575010295437 1.64531354878e-05 0)
(0.000568455041084 1.51817425191e-05 0)
(0.000562401254235 1.39941850173e-05 0)
(0.000556816675047 1.28848993737e-05 0)
(0.000551671012488 1.18489078644e-05 0)
(0.00054693575927 1.08818782756e-05 0)
(0.00054258398816 9.98019508543e-06 0)
(0.000538590130098 9.14104699702e-06 0)
(0.000534929734717 8.36253503909e-06 0)
(0.000531579214896 7.64380454859e-06 0)
(0.000528515579444 6.9852019492e-06 0)
(0.000525716162548 6.38845261996e-06 0)
(0.000523158366253 5.85684653573e-06 0)
(0.000520819444411 5.39539993031e-06 0)
(0.000518676374788 5.01092511651e-06 0)
(0.000516705891596 4.71187065066e-06 0)
(0.000514884781191 4.50765595979e-06 0)
(0.000513190563601 4.40694946239e-06 0)
(0.000511602625556 4.41378757728e-06 0)
(0.000510103497621 4.51939109158e-06 0)
(0.000508678524407 4.68615533037e-06 0)
(0.000507308903191 4.82212868555e-06 0)
(0.00121281174702 0.000152665816951 0)
(0.00124156950641 0.000326957845786 0)
(0.00126542667961 0.000397806440676 0)
(0.00127146221939 0.000406994127541 0)
(0.00125994157355 0.000385702868392 0)
(0.00123551050571 0.000351738025446 0)
(0.00120300914334 0.000314197691214 0)
(0.00116627256482 0.000277424228324 0)
(0.00112803792169 0.000243312985676 0)
(0.00109014688539 0.000212534337258 0)
(0.00105377934146 0.000185163093841 0)
(0.00101964867621 0.000161000000736 0)
(0.000988149067801 0.00013973479943 0)
(0.00095946164485 0.000121027561245 0)
(0.000933629140683 0.000104547705415 0)
(0.000910607558366 8.99911340057e-05 0)
(0.000890301474936 7.70861793511e-05 0)
(0.000872587874044 6.55939991257e-05 0)
(0.000857332015526 5.53063887454e-05 0)
(0.000844397820078 4.6042562007e-05 0)
(0.000833654501993 3.76456908461e-05 0)
(0.000824980653361 2.99795881373e-05 0)
(0.000818266610996 2.29257013692e-05 0)
(0.000813415677455 1.63804729486e-05 0)
(0.000810344586739 1.02530672392e-05 0)
(0.000808983479758 4.46343947443e-06 0)
(0.000809275567471 -1.05928708131e-06 0)
(0.000811176596123 -6.3781633769e-06 0)
(0.00081465418946 -1.15495092167e-05 0)
(0.000819687116303 -1.66238070536e-05 0)
(0.0008262645034 -2.16463822224e-05 0)
(0.000834384996598 -2.66578912767e-05 0)
(0.000844055864182 -3.16946236663e-05 0)
(0.000855292025389 -3.67886151092e-05 0)
(0.000868114978132 -4.19675649627e-05 0)
(0.000882551591966 -4.72545442166e-05 0)
(0.00089863272486 -5.26674761825e-05 0)
(0.000916391615385 -5.8218368585e-05 0)
(0.000935861995528 -6.39122750058e-05 0)
(0.000957075864094 -6.97459662828e-05 0)
(0.000980060857284 -7.57063009594e-05 0)
(0.001004837153 -8.17683000706e-05 0)
(0.00103141385051 -8.78929589961e-05 0)
(0.00105978478033 -9.40248703086e-05 0)
(0.0010899237235 -0.000100089789792 0)
(0.00112177906003 -0.000105992353279 0)
(0.00115526792678 -0.000111614242471 0)
(0.00119027005034 -0.000116813193482 0)
(0.00122662153083 -0.00012142332505 0)
(0.00126410898471 -0.000125257305245 0)
(0.00130246459402 -0.000128110841649 0)
(0.00134136273118 -0.000129769837014 0)
(0.00138041889724 -0.000130020288409 0)
(0.00141919168925 -0.000128660647443 0)
(0.00145718837847 -0.000125515973239 0)
(0.00149387444435 -0.000120452885852 0)
(0.00152868711093 -0.00011339411555 0)
(0.00156105261732 -0.000104331297785 0)
(0.00159040661782 -9.33344830449e-05 0)
(0.00161621669305 -8.05566056011e-05 0)
(0.00163800542189 -6.62311296159e-05 0)
(0.00165537192089 -5.06616719491e-05 0)
(0.00166800947236 -3.4203772962e-05 0)
(0.00167571709652 -1.72407994039e-05 0)
(0.00167840373101 -1.57554268327e-07 0)
(0.00167608491104 1.66839984078e-05 0)
(0.00166887322943 3.29626997868e-05 0)
(0.00165696495478 4.84075632299e-05 0)
(0.00164062550918 6.2798911903e-05 0)
(0.00162017592341 7.59637913812e-05 0)
(0.00159598128143 8.77691219409e-05 0)
(0.00156844113113 9.81154797207e-05 0)
(0.00153798121894 0.000106933157312 0)
(0.00150504570877 0.000114180922153 0)
(0.00147008915115 0.000119846921222 0)
(0.00143356777497 0.000123950542428 0)
(0.00139593009055 0.000126543796139 0)
(0.00135760720879 0.000127710956042 0)
(0.00131900357749 0.000127565725053 0)
(0.00128048893196 0.000126245889452 0)
(0.00124239213826 0.000123906061834 0)
(0.00120499733335 0.00012070950663 0)
(0.00116854243519 0.000116820118727 0)
(0.00113321980376 0.000112395436918 0)
(0.00109917863856 0.000107581239528 0)
(0.00106652861496 0.000102507917114 0)
(0.0010353442707 9.72885333223e-05 0)
(0.00100566972163 9.20183067034e-05 0)
(0.000977523380584 8.67751685305e-05 0)
(0.000950902449516 8.16210501168e-05 0)
(0.000925787040328 7.66035966092e-05 0)
(0.000902143847351 7.17580681903e-05 0)
(0.000879929344201 6.71092556088e-05 0)
(0.000859092511705 6.2673295915e-05 0)