/*--------------------------------*- C++ -*----------------------------------*\
  =========                 |
  \\      /  F ield         | OpenFOAM: The Open Source CFD Toolbox
   \\    /   O peration     | Website:  https://openfoam.org
    \\  /    A nd           | Version:  7
     \\/     M anipulation  |
\*---------------------------------------------------------------------------*/
FoamFile
{
    version     2.0;
    format      ascii;
    class       volScalarField;
    location    "2160";
    object      p;
}
// * * * * * * * * * * * * * * * * * * * * * * * * * * * * * * * * * * * * * //

dimensions      [0 2 -2 0 0 0 0];

internalField   nonuniform List<scalar> 
8192
(
0.000594860138249
0.000423312890832
0.000337703575592
0.000293599516502
0.000268585294899
0.00025335888962
0.000243501405069
0.000236767760897
0.000231950818257
0.000228366474433
0.000225607394653
0.000223419738899
0.000221638725989
0.000220153495701
0.000218887140354
0.000217784898877
0.000216806911595
0.000215923617809
0.000215112738385
0.000214357240228
0.000213643927098
0.000212962440998
0.000212304538991
0.000211663558845
0.000211034016115
0.000210411294176
0.000209791400158
0.000209170767972
0.000208546093947
0.000207914195545
0.000207271885184
0.000206615852395
0.000205942548856
0.000205248072291
0.000204528045258
0.000203777486126
0.000202990669462
0.000202160974639
0.000201280721829
0.00020034099691
0.000199331468187
0.000198240201652
0.000197053484471
0.000195755672167
0.000194329079588
0.000192753942889
0.000191008484331
0.000189069116935
0.000186910825603
0.000184507758159
0.000181834047241
0.000178864866693
0.000175577699558
0.000171953767596
0.000167979542429
0.000163648236034
0.000158961148653
0.000153928742143
0.000148571299764
0.00014291904163
0.000137011590608
0.000130896744433
0.000124628599414
0.00011826518417
0.000111865861495
0.000105488817618
9.91889452613e-05
9.30163189838e-05
8.70153095294e-05
8.12242479646e-05
7.56754492587e-05
7.03953928923e-05
6.54049062051e-05
6.07192790365e-05
5.63483132359e-05
5.22963663198e-05
4.85624683157e-05
4.51405852846e-05
4.20200713854e-05
3.9186313173e-05
3.66215288523e-05
3.43056591253e-05
3.2217272672e-05
3.03344155554e-05
2.86353484825e-05
2.70991395991e-05
2.57061008174e-05
2.44380750588e-05
2.32785922088e-05
2.22129191515e-05
2.12280291996e-05
2.0312515828e-05
1.94564706773e-05
1.86513428958e-05
1.78897914395e-05
1.71655395689e-05
1.647323654e-05
1.58083304127e-05
1.51669529954e-05
1.4545817959e-05
1.39421311958e-05
1.33535131902e-05
1.27779317451e-05
1.22136444471e-05
1.16591490975e-05
1.1113141516e-05
1.05744790854e-05
1.00421496304e-05
9.51524422773e-06
8.99293378698e-06
8.47444827424e-06
7.95905872714e-06
7.44606131343e-06
6.93476408233e-06
6.4244763739e-06
5.91450261158e-06
5.40414214633e-06
4.89269966977e-06
4.37951259461e-06
3.86400818956e-06
3.34581182781e-06
2.82494723002e-06
2.30220508132e-06
1.77983400957e-06
1.26287960947e-06
7.61927391854e-07
2.99843802258e-07
-9.22128911259e-09
0.000445943911915
0.000382432578155
0.000332749542172
0.000300106252467
0.000278193296516
0.000263019440403
0.000252205556277
0.000244286607414
0.000238337335402
0.000233759415385
0.000230156868111
0.000227261596277
0.000224888053734
0.000222905133784
0.000221218395382
0.000219758598791
0.00021847415983
0.000217326082836
0.000216284490945
0.00021532620519
0.000214433024712
0.000213590484053
0.000212786940208
0.000212012891208
0.000211260459187
0.000210522991729
0.000209794748705
0.000209070651431
0.000208346076129
0.00020761668001
0.000206878250499
0.000206126569223
0.000205357284832
0.000204565790106
0.000203747099294
0.000202895722905
0.000202005537481
0.000201069649337
0.000200080251851
0.000199028477894
0.000197904250375
0.000196696136952
0.000195391217519
0.000193974977538
0.000192431244029
0.0001907421863
0.000188888407032
0.00018684915286
0.000184602673034
0.00018212675147
0.000179399427218
0.000176399903779
0.000173109626069
0.000169513481286
0.000165601056009
0.000161367864001
0.000156816444793
0.000151957226304
0.00014680904075
0.000141399189644
0.000135762974051
0.000129942654186
0.00012398587481
0.000117943683989
0.000111868354853
0.000105811269786
9.98211254516e-05
9.39426206211e-05
8.82156643223e-05
8.26750364057e-05
7.73503444207e-05
7.22661143864e-05
6.74418945632e-05
6.28923177119e-05
5.86271265467e-05
5.46512094138e-05
5.09647081084e-05
4.75632542425e-05
4.44383654661e-05
4.1578001946e-05
3.89672511857e-05
3.65890883138e-05
3.44251487754e-05
3.24564554787e-05
3.06640547631e-05
2.90295344502e-05
2.75354137864e-05
2.61654103451e-05
2.49045975753e-05
2.373947266e-05
2.26579547571e-05
2.16493334297e-05
2.07041835885e-05
1.98142609634e-05
1.89723880979e-05
1.81723388327e-05
1.74087260486e-05
1.66768963468e-05
1.59728331385e-05
1.52930693568e-05
1.46346095307e-05
1.39948612494e-05
1.33715750157e-05
1.27627920715e-05
1.21667989912e-05
1.15820885608e-05
1.10073257878e-05
1.04413186722e-05
9.88299274865e-06
9.33136922879e-06
8.78554599618e-06
8.24468157271e-06
7.70798167735e-06
7.17468898205e-06
6.64407636348e-06
6.1154452321e-06
5.58813069257e-06
5.06151733148e-06
4.53507082061e-06
4.0083945387e-06
3.48132504188e-06
2.95408961563e-06
2.42756295506e-06
1.90368599167e-06
1.38615386574e-06
8.81595150383e-07
4.0113281442e-07
3.53781100055e-08
0.000362989626615
0.00034032552881
0.000314339728557
0.000293110661502
0.000276999275488
0.000264695903419
0.000255180807166
0.000247726253654
0.000241810218063
0.000237053544924
0.000233178009804
0.000229977653218
0.000227298724667
0.000225025462888
0.000223069939734
0.000221364767354
0.000219857832418
0.000218508469616
0.000217284660194
0.000216160963882
0.000215116978247
0.000214136180029
0.000213205044826
0.000212312371271
0.000211448756198
0.000210606182166
0.000209777688631
0.000208957106124
0.000208138835745
0.000207317663971
0.000206488603466
0.000205646751202
0.000204787158437
0.000203904708223
0.000202993996473
0.000202049214065
0.000201064027596
0.000200031457972
0.000198943756303
0.000197792278575
0.000196567361436
0.000195258204266
0.000193852764441
0.000192337676734
0.000190698210457
0.000188918282799
0.00018698054946
0.000184866597375
0.000182557263762
0.000180033103868
0.00017727502087
0.000174265059276
0.000170987343645
0.000167429124694
0.000163581873189
0.000159442347521
0.000155013549227
0.000150305476763
0.000145335583015
0.00014012884462
0.000134717362742
0.00012913945387
0.000123438252859
0.000117659936845
0.00011185175875
0.000106060131045
0.000100329016157
9.46987742608e-05
8.92054936297e-05
8.38807352512e-05
7.8751528823e-05
7.38404638311e-05
6.9165767774e-05
6.47413311882e-05
6.05766932331e-05
5.66770382772e-05
5.30432637525e-05
4.96721723648e-05
4.65568163017e-05
4.36869919742e-05
4.10498532361e-05
3.86305926719e-05
3.64131320024e-05
3.43807692858e-05
3.25167427164e-05
3.08046890144e-05
2.92289889199e-05
2.77750058358e-05
2.64292302392e-05
2.5179347439e-05
2.40142457508e-05
2.29239819932e-05
2.18997177318e-05
2.09336380841e-05
2.00188611904e-05
1.91493451827e-05
1.83197965196e-05
1.75255830575e-05
1.67626530642e-05
1.60274615419e-05
1.53169036412e-05
1.46282555353e-05
1.39591218942e-05
1.330738992e-05
1.26711888758e-05
1.20488549749e-05
1.14389005711e-05
1.08399875823e-05
1.02509042012e-05
9.67054497596e-06
9.09789350225e-06
8.53200803527e-06
7.97200954833e-06
7.41707290837e-06
6.86642117225e-06
6.31932431702e-06
5.77510329151e-06
5.23314193025e-06
4.69290933918e-06
4.15399772906e-06
3.6161817912e-06
3.07950968566e-06
2.54443943199e-06
2.01204223991e-06
1.48430076113e-06
9.64470299927e-07
4.56824834608e-07
4.76559953995e-08
0.000318430836118
0.000310045927569
0.000295857810182
0.000282070184754
0.0002706462205
0.000261374921071
0.000253803545462
0.000247563912236
0.000242377951589
0.00023803314269
0.000234363736038
0.00023123864685
0.000228553384193
0.000226224280656
0.000224184132314
0.000222378801412
0.000220764533828
0.000219305832046
0.000217973767394
0.00021674464086
0.000215598919759
0.000214520392029
0.000213495491527
0.000212512757483
0.000211562398884
0.000210635940916
0.000209725935356
0.000208825721051
0.000207929220929
0.000207030769592
0.000206124964272
0.000205206531124
0.000204270203078
0.000203310605525
0.000202322146558
0.000201298909452
0.000200234545412
0.000199122165602
0.000197954231996
0.000196722447884
0.000195417649874
0.000194029705206
0.000192547420058
0.000190958467533
0.000189249346946
0.00018740539007
0.00018541083337
0.000183248978855
0.000180902467253
0.000178353686095
0.000175585328553
0.00017258110735
0.000169326609876
0.000165810260216
0.000162024333091
0.000157965950402
0.000153637982665
0.000149049774628
0.000144217609114
0.000139164817949
0.000133921451426
0.000128523447957
0.000123011309845
0.000117428382776
0.000111818929025
0.000106226244892
0.00010069111747
9.52507784881e-05
8.99383668392e-05
8.47828137109e-05
7.98089490136e-05
7.50376529195e-05
7.04859455805e-05
6.61669864443e-05
6.20900128488e-05
5.8260280863e-05
5.46790784758e-05
5.13438690587e-05
4.8248594938e-05
4.53841375482e-05
4.27388988524e-05
4.02994490565e-05
3.80511794307e-05
3.59789072897e-05
3.40673954684e-05
3.23017673836e-05
3.06678141824e-05
2.91522024248e-05
2.77425967356e-05
2.64277148219e-05
2.51973314098e-05
2.40422462169e-05
2.29542279978e-05
2.19259444902e-05
2.0950885202e-05
2.00232823813e-05
1.91380334478e-05
1.82906273409e-05
1.74770759021e-05
1.66938511568e-05
1.59378284977e-05
1.52062358679e-05
1.44966084522e-05
1.38067486651e-05
1.31346907843e-05
1.24786699473e-05
1.18370948617e-05
1.12085239945e-05
1.05916446738e-05
9.98525497303e-06
9.38824794157e-06
8.79959820395e-06
8.21835067252e-06
7.64361161019e-06
7.0745420573e-06
6.51035419466e-06
5.95031109465e-06
5.3937310159e-06
4.83999750443e-06
4.28857763632e-06
3.73905147225e-06
3.19115790348e-06
2.64486412635e-06
2.10046749312e-06
1.55872201913e-06
1.02086079037e-06
4.87804934366e-07
4.96898155809e-08
0.00029080788042
0.000288841084249
0.00028104354214
0.000271852438755
0.000263572761041
0.000256541873896
0.00025060281738
0.000245550300075
0.000241216002715
0.000237470258111
0.000234211800341
0.000231359377074
0.000228846357907
0.000226617359651
0.000224626014798
0.000222833366342
0.000221206622517
0.000219718141557
0.000218344582523
0.000217066187915
0.000215866176328
0.000214730228863
0.000213646055502
0.000212603029354
0.000211591877941
0.000210604422064
0.000209633354059
0.000208672048185
0.000207714394766
0.000206754656432
0.000205787341836
0.000204807090103
0.000203808564214
0.000202786350527
0.00020173486199
0.000200648243143
0.000199520275289
0.000198344280846
0.000197113026304
0.000195818624132
0.000194452434825
0.000193004971814
0.000191465813638
0.000189823530415
0.000188065634539
0.00018617856957
0.000184147755217
0.000181957710706
0.000179592281414
0.000177034994043
0.00017426956051
0.000171280539743
0.000168054147968
0.000164579185681
0.000160848027095
0.000156857603278
0.000152610304421
0.000148114726557
0.00014338618181
0.000138446876869
0.000133325653621
0.000128057207543
0.000122680768341
0.00011723833377
0.000111772660181
0.000106325291061
0.000100934991425
9.56367717183e-05
9.04614959154e-05
8.54359535337e-05
8.05831257053e-05
7.59224322111e-05
7.14698483639e-05
6.72378786395e-05
6.32354383649e-05
5.94677263754e-05
5.59361746733e-05
5.26385434446e-05
4.95691957396e-05
4.67195461277e-05
4.4078641021e-05
4.16338065231e-05
3.9371295174e-05
3.72768747751e-05
3.53363221186e-05
3.35358059325e-05
3.18621601404e-05
3.03030599407e-05
2.88471181845e-05
2.74839208619e-05
2.6204018611e-05
2.49988886629e-05
2.38608782626e-05
2.2783138038e-05
2.17595511166e-05
2.07846621735e-05
1.98536088994e-05
1.89620576075e-05
1.81061436972e-05
1.7282417458e-05
1.64877950985e-05
1.57195149365e-05
1.49750983022e-05
1.4252314896e-05
1.35491520636e-05
1.28637877022e-05
1.21945662808e-05
1.15399777365e-05
1.08986387953e-05
1.02692765573e-05
9.65071398321e-06
9.04185721603e-06
8.44168448017e-06
7.84923661112e-06
7.2636090986e-06
6.68394587634e-06
6.10943498472e-06
5.53930669535e-06
4.97283477406e-06
4.40934234125e-06
3.84821434176e-06
3.28891983039e-06
2.73104701205e-06
2.1743479542e-06
1.61875600094e-06
1.06420681177e-06
5.09743663411e-07
5.00965232121e-08
0.000272457791767
0.000273354344777
0.000269312815486
0.000263179020298
0.000257084978642
0.000251652530337
0.000246932157647
0.000242828880737
0.000239236019343
0.0002360650117
0.000233246429439
0.000230725419867
0.000228457506307
0.000226405688186
0.000224538590486
0.000222829281346
0.000221254477791
0.000219793970126
0.000218430171596
0.000217147744777
0.000215933280188
0.000214775014706
0.000213662583007
0.000212586797746
0.000211539455122
0.000210513162923
0.000209501188739
0.000208497324271
0.000207495762323
0.000206490987269
0.000205477676508
0.000204450607549
0.000203404570529
0.0002023342843
0.000201234314374
0.000200098991285
0.000198922328044
0.000197697935727
0.000196418936487
0.000195077873914
0.000193666621266
0.000192176289366
0.000190597137347
0.000188918491893
0.000187128683481
0.00018521501233
0.000183163761471
0.000180960279771
0.000178589162217
0.000176034557043
0.000173280626034
0.000170312173702
0.000167115441009
0.000163679033154
0.000159994924781
0.000156059470037
0.000151874342861
0.000147447338367
0.000142792960374
0.000137932693346
0.000132894826312
0.000127713705768
0.000122428372622
0.000117080668218
0.000111713035331
0.000106366344062
0.000101078222424
9.58821266276e-05
9.08071257334e-05
8.5878219569e-05
8.11168152234e-05
7.65410959137e-05
7.21661685673e-05
6.80040006801e-05
6.40632276583e-05
6.034894025e-05
5.68625596099e-05
5.36018828846e-05
5.05613399044e-05
4.77324518749e-05
4.51044387065e-05
4.26648964072e-05
4.04004637859e-05
3.82974150535e-05
3.63421408392e-05
3.45215059131e-05
3.28230906464e-05
3.12353342784e-05
2.97476016868e-05
2.83501948339e-05
2.7034326732e-05
2.57920721046e-05
2.46163050048e-05
2.3500630739e-05
2.24393168223e-05
2.1427226102e-05
2.04597537412e-05
1.95327690762e-05
1.86425626231e-05
1.77857983196e-05
1.69594707024e-05
1.61608667655e-05
1.53875320208e-05
1.46372404242e-05
1.3907967677e-05
1.31978675873e-05
1.25052510529e-05
1.18285674059e-05
1.11663877477e-05
1.05173900783e-05
9.88034591412e-06
9.25410826252e-06
8.63760071242e-06
8.02980758235e-06
7.42976497331e-06
6.83655278563e-06
6.24928772375e-06
5.66711761564e-06
5.0892174774e-06
4.51478821113e-06
3.94305894665e-06
3.37329379542e-06
2.80480058522e-06
2.2369271526e-06
1.66899145566e-06
1.09998978006e-06
5.27768516238e-07
5.08576994495e-08
0.000259577104388
0.000261702402549
0.000259905098901
0.000255887081392
0.000251398918884
0.000247157619281
0.000243352651693
0.000239978508193
0.000236977910244
0.00023429050222
0.00023186532571
0.000229661630915
0.000227646827738
0.000225794318078
0.000224081850797
0.000222490400457
0.000221003428272
0.000219606390399
0.000218286397101
0.000217031961537
0.000215832801857
0.000214679676064
0.000213564238352
0.000212478910859
0.000211416767443
0.000210371427523
0.000209336959811
0.000208307791166
0.00020727862156
0.000206244346185
0.000205199983094
0.000204140602477
0.000203061258169
0.000201956920228
0.00020082240739
0.000199652318308
0.000198440960466
0.000197182275794
0.000195869762144
0.000194496390088
0.000193054514998
0.000191535785229
0.000189931048503
0.000188230260726
0.000186422404432
0.000184495428416
0.000182436225653
0.000180230673371
0.000177863765855
0.000175319875257
0.000172583174863
0.000169638249079
0.00016647089214
0.000163069065592
0.000159423951981
0.000155531023434
0.000151391047336
0.000147010967409
0.000142404596389
0.000137593012965
0.000132604493396
0.00012747379808
0.00012224072637
0.000116948018271
0.000111638856645
0.000106354365624
0.000101131746634
9.60033804412e-05
9.09968463758e-05
8.61355715794e-05
8.14395799653e-05
7.69260059531e-05
7.2609266195e-05
6.85009379393e-05
6.46094655692e-05
6.09398388648e-05
5.74933775178e-05
5.42677235092e-05
5.1257089962e-05
4.84527520453e-05
4.58437102487e-05
4.34174264655e-05
4.11605348095e-05
3.90594545933e-05
3.71008677889e-05
3.52720547963e-05
3.35611035697e-05
3.19570174196e-05
3.04497486425e-05
2.90301821393e-05
2.76900881614e-05
2.64220581898e-05
2.52194335106e-05
2.40762326578e-05
2.29870814242e-05
2.19471474847e-05
2.09520805776e-05
1.99979585197e-05
1.90812389211e-05
1.81987162555e-05
1.73474838186e-05
1.65249000875e-05
1.57285589779e-05
1.49562635376e-05
1.42060026353e-05
1.34759302586e-05
1.27643470591e-05
1.20696838351e-05
1.1390486661e-05
1.07254034188e-05
1.00731714955e-05
9.43260645604e-06
8.8025915032e-06
8.18206758617e-06
7.57002403323e-06
6.96548965113e-06
6.36752428361e-06
5.77521092482e-06
5.18764854867e-06
4.60394581061e-06
4.02321533102e-06
3.44456658478e-06
2.86709016599e-06
2.28981193752e-06
1.71156130363e-06
1.13063452004e-06
5.44091088656e-07
5.29541874714e-08
0.000250121308169
0.000252711946696
0.000252263840767
0.000249728774689
0.000246456648111
0.000243142605203
0.00024005222163
0.000237247930141
0.000234715514994
0.000232419501434
0.000230323589047
0.000228396570567
0.000226612971526
0.000224952127816
0.000223397045907
0.000221933450566
0.000220549084326
0.000219233218409
0.000217976316271
0.000216769799458
0.000215605879237
0.000214477429583
0.00021337788599
0.000212301160549
0.000211241567553
0.000210193756147
0.000209152650087
0.000208113386735
0.000207071259798
0.000206021666175
0.000204960054361
0.000203881872259
0.000202782514966
0.00020165727173
0.000200501271186
0.000199309423956
0.000198076361576
0.000196796370757
0.00019546332186
0.000194070590711
0.000192610973006
0.000191076591235
0.000189458795036
0.000187748057777
0.000185933875077
0.000184004675567
0.000181947760544
0.00017974929761
0.000177394402614
0.000174867352375
0.00017215197291
0.000169232238959
0.000166093095231
0.000162721469765
0.000159107406561
0.000155245220693
0.000151134590629
0.000146781537689
0.000142199251013
0.000137408650547
0.000132438467276
0.000127324576381
0.000122108437007
0.000116834711629
0.000111548347571
0.00010629159429
0.000101101827757
9.60106764331e-05
9.10443734068e-05
8.62248625157e-05
8.15708983143e-05
7.70987233052e-05
7.28222453446e-05
6.87528240088e-05
6.48988400605e-05
6.12652327837e-05
5.78531722531e-05
5.46599917717e-05
5.16794392814e-05
4.89022256329e-05
4.63167764685e-05
4.39100587417e-05
4.16683599662e-05
3.95779362188e-05
3.7625491869e-05
3.57984932557e-05
3.40853420508e-05
3.24754431411e-05
3.0959200695e-05
2.95279702123e-05
2.81739869253e-05
2.68902844082e-05
2.56706119612e-05
2.45093557572e-05
2.34014661993e-05
2.23423925199e-05
2.1328024668e-05
2.03546421463e-05
1.94188691393e-05
1.8517635279e-05
1.76481413125e-05
1.68078290579e-05
1.59943550193e-05
1.52055671719e-05
1.44394844215e-05
1.36942783699e-05
1.29682570023e-05
1.22598500223e-05
1.15675955339e-05
1.08901278606e-05
1.02261662597e-05
9.57450436698e-06
8.93400017096e-06
8.30356638994e-06
7.68216108634e-06
7.06877842961e-06
6.46243947201e-06
5.86218283866e-06
5.26705506029e-06
4.67609995558e-06
4.0883453802e-06
3.50278311431e-06
2.91833146626e-06
2.33375681084e-06
1.74750496145e-06
1.15736121512e-06
5.59869516203e-07
5.69501109765e-08
0.000242924530718
0.000245626337419
0.000245988479606
0.000244496911017
0.000242156477682
0.000239583445506
0.000237071022467
0.000234726852774
0.000232571908349
0.000230593325709
0.000228768456306
0.000227074426564
0.000225491226085
0.000224002192108
0.000222593598818
0.000221254046837
0.00021997390283
0.00021874485557
0.000217559586366
0.000216411531219
0.000215294710214
0.000214203603684
0.000213133059899
0.000212078223513
0.000211034477516
0.00020999739368
0.000208962691238
0.00020792619326
0.000206883785801
0.000205831381871
0.000204764883994
0.0002036801456
0.000202572931182
0.000201438874487
0.000200273433979
0.000199071844639
0.000197829065122
0.000196539719037
0.000195198029104
0.000193797742741
0.000192332047759
0.00019079347704
0.000189173801898
0.000187463915256
0.000185653708655
0.00018373195173
0.000181686190063
0.000179502687422
0.000177166450943
0.000174661390151
0.000171970667751
0.000169077293334
0.000165964982679
0.000162619253663
0.000159028670439
0.000155186113222
0.000151089973796
0.000146745244571
0.00014216450207
0.00013736869077
0.00013238741657
0.00012725835622
0.000122025551206
0.000116736662092
0.000111439489049
0.000106178305048
0.000100991200774
9.59092324836e-05
9.09572678244e-05
8.61557335473e-05
8.1522163757e-05
7.70720485394e-05
7.28189817149e-05
6.87743079107e-05
6.49465080711e-05
6.13405556489e-05
5.79574487614e-05
5.47940730521e-05
5.18434678433e-05
4.90954625489e-05
4.65375568341e-05
4.41558743568e-05
4.19360365062e-05
3.986385846e-05
3.79258336923e-05
3.6109421562e-05
3.44031783796e-05
3.27967786702e-05
3.12809681681e-05
2.9847480132e-05
2.84889365388e-05
2.71987473952e-05
2.5971015537e-05
2.48004503452e-05
2.36822915342e-05
2.26122428123e-05
2.15864146446e-05
2.06012750303e-05
1.96536072354e-05
1.87404734175e-05
1.78591832597e-05
1.70072667832e-05
1.61824506918e-05
1.53826376413e-05
1.46058879816e-05
1.38504035301e-05
1.31145130605e-05
1.23966591802e-05
1.16953863698e-05
1.10093299297e-05
1.03372056641e-05
9.67780008919e-06
9.0299610271e-06
8.39258839267e-06
7.76462503732e-06
7.14504743673e-06
6.53285601295e-06
5.9270646907e-06
5.32668904371e-06
4.73073166019e-06
4.13816197427e-06
3.54788473584e-06
2.95868531198e-06
2.36912890647e-06
1.77737439824e-06
1.18085137942e-06
5.75778540423e-07
6.32156278924e-08
0.000237289674396
0.000239942428244
0.000240787044928
0.000240030242065
0.000238405729172
0.000236431993161
0.000234397967941
0.000232436382332
0.000230594280463
0.000228878168471
0.000227278133029
0.000225779309943
0.00022436675817
0.00022302719262
0.000221749341194
0.000220523768164
0.000219342540789
0.000218198893643
0.00021708694383
0.000216001467034
0.000214937727885
0.000213891353541
0.000212858239545
0.000211834478822
0.000210816306828
0.000209800057718
0.000208782129704
0.000207758950486
0.000206726943816
0.00020568250359
0.00020462196488
0.000203541574116
0.000202437457602
0.000201305587659
0.00020014174551
0.000198941479989
0.000197700060916
0.000196412425813
0.000195073118337
0.000193676216586
0.000192215249175
0.000190683096997
0.000189071878874
0.000187372820493
0.000185576108429
0.000183670735816
0.000181644354077
0.000179483157232
0.000177171841467
0.000174693700765
0.000172030932934
0.000169165228205
0.000166078680988
0.000162754998642
0.000159180896298
0.000155347513616
0.000151251725329
0.000146897339669
0.000142296262689
0.000137469577191
0.000132448150096
0.000127272170403
0.000121989263039
0.000116651290254
0.000111310154007
0.000106013164587
0.000100799646783
9.57001129732e-05
9.07378650021e-05
8.59316557447e-05
8.12977993668e-05
7.6851174944e-05
7.2605285005e-05
6.85717002975e-05
6.47592032925e-05
6.11729142035e-05
5.78136483227e-05
5.46776968582e-05
5.17571234279e-05
4.90405286343e-05
4.65141088874e-05
4.41627820658e-05
4.19711844416e-05
3.99244261385e-05
3.80085786817e-05
3.62109280259e-05
3.45200529893e-05
3.29257907831e-05
3.14191399932e-05
2.99921365421e-05
2.86377247505e-05
2.73496356863e-05
2.61222783532e-05
2.49506453783e-05
2.38302327171e-05
2.27569719571e-05
2.17271734514e-05
2.07374785576e-05
1.97848194032e-05
1.88663848404e-05
1.79795914602e-05
1.71220587462e-05
1.62915876102e-05
1.54861416995e-05
1.47038309704e-05
1.39428971211e-05
1.32017005402e-05
1.24787084889e-05
1.17724842711e-05
1.10816771836e-05
1.0405013057e-05
9.7412852124e-06
9.08934566681e-06
8.4480964086e-06
7.81648054307e-06
7.19347304567e-06
6.57807074893e-06
5.96928095142e-06
5.36610759648e-06
4.76753309607e-06
4.17249223806e-06
3.57983155672e-06
2.98824220231e-06
2.39614600884e-06
1.80150489975e-06
1.20152247955e-06
5.92236690489e-07
7.19954133731e-08
0.000232781414061
0.000235317054833
0.000236442899707
0.000236203061272
0.000235128272997
0.000233640979577
0.000232007740657
0.00023037081751
0.000228794467553
0.000227300553689
0.000225890430104
0.000224556834257
0.000223289788887
0.000222079263115
0.000220916200067
0.000219792775756
0.000218702329302
0.000217639177398
0.000216598409511
0.000215575702923
0.000214567169572
0.000213569234768
0.000212578543289
0.00021159188722
0.000210606150253
0.000209618264972
0.000208625178283
0.000207623820449
0.000206611074937
0.000205583756527
0.000204538586955
0.000203472169989
0.000202380964983
0.000201261258012
0.000200109129666
0.000198920418445
0.000197690678488
0.00019641513009
0.000195088601109
0.000193705456895
0.000192259515941
0.000190743948034
0.000189151151616
0.000187472607609
0.000185698708982
0.000183818569724
0.000181819825309
0.000179688450657
0.000177408642058
0.000174962834806
0.00017233195133
0.000169495980381
0.000166434955073
0.000163130311245
0.000159566484479
0.000155732515626
0.000151623483479
0.000147241792886
0.000142598531333
0.000137714944299
0.00013262351496
0.000127367715451
0.000121999889836
0.000116577511533
0.000111158111415
0.000105793282304
0.000100524121565
9.53804389769e-05
9.03835491613e-05
8.55502499787e-05
8.08956119671e-05
7.64340713687e-05
7.21793069654e-05
6.81434036041e-05
6.4335684872e-05
6.07615511209e-05
5.7421619751e-05
5.43114082797e-05
5.14216823648e-05
4.87394023431e-05
4.62490269437e-05
4.39338664282e-05
4.17772347919e-05
3.97632730893e-05
3.78774326548e-05
3.61066791962e-05
3.44395038177e-05
3.28658207655e-05
3.1376812007e-05
2.99647575629e-05
2.86228734951e-05
2.73451677519e-05
2.61263170553e-05
2.496156421e-05
2.38466335513e-05
2.27776616834e-05
2.17511407663e-05
2.07638718986e-05
1.98129265808e-05
1.88956145941e-05
1.80094570009e-05
1.71521632143e-05
1.632161134e-05
1.5515831131e-05
1.47329890625e-05
1.39713751017e-05
1.32293908621e-05
1.25055388504e-05
1.17984125976e-05
1.11066874593e-05
1.04291119233e-05
9.76449924219e-06
9.11171923146e-06
8.46969002644e-06
7.83736956998e-06
7.21374648196e-06
6.59782982164e-06
5.98863691805e-06
5.38517792767e-06
4.78643478075e-06
4.19133052074e-06
3.5986821744e-06
3.00712588893e-06
2.41499715919e-06
1.82014407227e-06
1.21965486548e-06
6.09505232639e-07
8.34355885959e-08
0.000229116583602
0.000231510499982
0.000232792764987
0.00023291575063
0.000232262207949
0.000231169556535
0.000229873656759
0.00022851551366
0.00022716900981
0.000225867198825
0.000224620790776
0.000223429406856
0.000222287838021
0.000221189276866
0.000220126852059
0.000219094263969
0.000218085970843
0.000217097167125
0.000216123678518
0.000215161834942
0.000214208349029
0.000213260210798
0.000212314600824
0.000211368820523
0.000210420236707
0.000209466239623
0.000208504207027
0.000207531473323
0.000206545301495
0.000205542861703
0.000204521208925
0.000203477260337
0.000202407771417
0.000201309309834
0.000200178226062
0.000199010619595
0.000197802299336
0.000196548736443
0.000195245007399
0.000193885724491
0.000192464950113
0.000190976090575
0.000189411764401
0.000187763640086
0.000186022239414
0.000184176706399
0.000182214550248
0.000180121386473
0.000177880725255
0.000175473890439
0.000172880188762
0.000170077468267
0.000167043174938
0.000163755907029
0.00016019728619
0.000156353812327
0.000152218421369
0.000147791810789
0.000143083974424
0.000138116213288
0.000132922942983
0.0001275517935
0.000122061160363
0.000116515826288
0.000110980917966
0.000105513963284
0.000100158439252
9.49430331327e-05
8.98863630209e-05
8.50028706421e-05
8.03063737691e-05
7.58110902639e-05
7.15312018745e-05
6.74796458573e-05
6.36665592595e-05
6.00977634868e-05
5.67736368902e-05
5.36886798158e-05
5.08319433285e-05
4.81882318354e-05
4.57397403351e-05
4.34677050777e-05
4.13537462324e-05
3.9380762527e-05
3.75333944308e-05
3.57981572597e-05
3.41633643826e-05
3.2618941867e-05
3.11562045784e-05
2.97676350375e-05
2.84466852567e-05
2.71876087163e-05
2.5985322414e-05
2.4835295682e-05
2.37334613397e-05
2.26761448486e-05
2.16600076364e-05
2.06820014666e-05
1.9739331353e-05
1.88294250997e-05
1.79499079756e-05
1.70985814039e-05
1.62734047959e-05
1.5472479875e-05
1.46940369746e-05
1.39364229157e-05
1.31980901431e-05
1.24775868671e-05
1.17735479947e-05
1.10846866684e-05
1.04097862421e-05
9.74769253221e-06
9.09730616576e-06
8.45757481456e-06
7.82748503871e-06
7.20605334008e-06
6.59231582038e-06
5.98531548205e-06
5.38408561425e-06
4.7876267091e-06
4.19487274273e-06
3.6046401595e-06
3.0155494024e-06
2.42590486809e-06
1.83351703011e-06
1.23545510141e-06
6.27735702522e-07
9.75952876033e-08
0.000226103749589
0.000228351321288
0.000229711783792
0.000230088057896
0.000229756449716
0.000228983230661
0.000227971400477
0.000226853965929
0.000225708512552
0.000224575450828
0.000223472763338
0.000222405982814
0.00022137429518
0.000220374017831
0.000219400461133
0.000218448852678
0.000217514743599
0.000216594142337
0.000215683514035
0.000214779720737
0.00021387994162
0.000212981592524
0.000212082253193
0.000211179605029
0.000210271379169
0.000209355316533
0.000208429132623
0.000207490484771
0.00020653694634
0.000205565984578
0.000204574938824
0.000203560998674
0.000202521181111
0.00020145230558
0.000200350965934
0.000199213497992
0.000198035941221
0.000196813992585
0.000195542950075
0.000194217642609
0.000192832341985
0.000191380651367
0.000189855363532
0.000188248281181
0.000186549991815
0.000184749592483
0.000182834367694
0.000180789440494
0.000178597446499
0.000176238325533
0.000173689379844
0.000170925788955
0.000167921752854
0.000164652300756
0.000161095540092
0.000157234855664
0.000153060595523
0.000148571328306
0.000143775488596
0.000138694113196
0.000133363800793
0.00012783738394
0.000122180915592
0.000116468556365
0.000110775675647
0.000105168092008
9.96924111191e-05
9.4375378171e-05
8.92318152809e-05
8.42733126708e-05
7.95125041369e-05
7.49636990049e-05
7.06419700047e-05
6.65614838975e-05
6.27334748533e-05
5.91643062088e-05
5.58540154223e-05
5.27957332533e-05
4.99762331302e-05
4.73774933259e-05
4.49787878708e-05
4.27587228516e-05
4.06968062619e-05
3.87744080865e-05
3.69751754927e-05
3.52850624217e-05
3.36921377091e-05
3.21862974589e-05
3.0758960923e-05
2.94027914271e-05
2.81114589876e-05
2.68794471582e-05
2.57018999267e-05
2.45745020455e-05
2.34933860169e-05
2.24550597207e-05
2.14563497889e-05
2.04943568701e-05
1.95664198707e-05
1.86700869656e-05
1.78030917576e-05
1.69633333648e-05