/*--------------------------------*- C++ -*----------------------------------*\
  =========                 |
  \\      /  F ield         | OpenFOAM: The Open Source CFD Toolbox
   \\    /   O peration     | Website:  https://openfoam.org
    \\  /    A nd           | Version:  7
     \\/     M anipulation  |
\*---------------------------------------------------------------------------*/
FoamFile
{
    version     2.0;
    format      ascii;
    class       surfaceScalarField;
    location    "2160";
    object      phi;
}
// * * * * * * * * * * * * * * * * * * * * * * * * * * * * * * * * * * * * * //

dimensions      [0 3 -1 0 0 0 0];

internalField   nonuniform List<scalar> 
16192
(
6.92925243451e-10
2.44574756549e-10
4.93567831493e-10
1.99357409861e-10
3.64828667721e-10
1.28739161422e-10
2.82237866817e-10
8.25907983412e-11
2.27599340024e-10
5.46385239136e-11
1.89969967656e-10
3.76293693122e-11
1.6300748198e-10
2.69624825362e-11
1.42999430449e-10
2.00080483678e-11
1.27711630112e-10
1.52877971677e-11
1.15751682157e-10
1.19599448058e-11
1.06219163865e-10
9.53251516026e-12
9.85105398293e-11
7.70862094416e-12
9.22076613426e-11
6.30287542732e-12
8.70121438519e-11
5.19551448896e-12
8.27055213009e-11
4.30661959663e-12
7.91242851314e-11
3.5812332932e-12
7.61437707837e-11
2.98051153842e-12
7.36674590498e-11
2.47630902762e-12
7.16196861338e-11
2.04777030127e-12
6.99405584209e-11
1.67912523122e-12
6.85823290361e-11
1.35822702472e-12
6.75067670241e-11
1.07555982164e-12
6.66832146849e-11
8.23550308104e-13
6.60871321936e-11
5.9608067518e-13
6.56989929976e-11
3.88137586464e-13
6.55034366947e-11
1.95554965001e-13
6.54886130265e-11
1.4822596234e-14
6.56456703898e-11
-1.57058093986e-13
6.5968353021e-11
-3.22683022455e-13
6.64526822168e-11
-4.84329161253e-13
6.70967021788e-11
-6.44019498839e-13
6.79002748558e-11
-8.03571686849e-13
6.88649098106e-11
-9.64633430377e-13
6.99936181431e-11
-1.12870616278e-12
7.12907787939e-11
-1.29715782503e-12
7.27620069134e-11
-1.47122451468e-12
7.44140117234e-11
-1.65200041429e-12
7.62544315854e-11
-1.84041454269e-12
7.82916305846e-11
-2.03719274814e-12
8.05344406616e-11
-2.24280275698e-12
8.29918295102e-11
-2.45738046264e-12
8.56724748532e-11
-2.6806357576e-12
8.85842233797e-11
-2.91173776703e-12
9.17334164988e-11
-3.14918106661e-12
9.51240679872e-11
-3.39063820445e-12
9.87568906292e-11
-3.63280803414e-12
1.02628182054e-10
-3.87127560387e-12
1.06728604289e-10
-4.10040514744e-12
1.11041916248e-10
-4.3132937755e-12
1.15543751396e-10
-4.50181586391e-12
1.20200558476e-10
-4.65678694337e-12
1.2496884671e-10
-4.76826729769e-12
1.29794880034e-10
-4.82601192997e-12
1.34614956618e-10
-4.82005486793e-12
1.39356376885e-10
-4.7413986837e-12
1.43939163434e-10
-4.58276533159e-12
1.48278538666e-10
-4.339354951e-12
1.52288105363e-10
-4.00954766375e-12
1.55883590541e-10
-3.59546803598e-12
1.58986917086e-10
-3.10331161124e-12
1.61530254588e-10
-2.54332539903e-12
1.63459619441e-10
-1.92935580685e-12
1.64737569006e-10
-1.27794408289e-12
1.65344619901e-10
-6.07049047756e-13
1.65279204509e-10
6.54132608862e-14
1.6455625135e-10
7.22947161392e-13
1.6320475416e-10
1.35148717135e-12
1.61264859713e-10
1.93988072025e-12
1.58784998611e-10
2.47984372721e-12
1.55819450859e-10
2.96552724525e-12
1.52426497683e-10
3.39292977991e-12
1.48667098466e-10
3.75937358284e-12
1.44603894304e-10
4.06317662705e-12
1.40300313506e-10
4.30355203816e-12
1.35819597584e-10
4.48068626877e-12
1.3122366268e-10
4.59590498295e-12
1.26571806859e-10
4.65182589691e-12
1.21919360159e-10
4.65241729702e-12
1.17316415844e-10
4.60291560404e-12
1.12806790166e-10
4.50959805517e-12
1.08427321301e-10
4.379442393e-12
1.04207566938e-10
4.21972931247e-12
1.00169895158e-10
4.03764811395e-12
9.63299160242e-11
3.83995701959e-12
9.26971654532e-11
3.63272989644e-12
8.92759453091e-11
3.42120100265e-12
8.60662261513e-11
3.20970139365e-12
8.30645394424e-11
3.00167036967e-12
8.02648042041e-11
2.79972014666e-12
7.76590573905e-11
2.60573299376e-12
7.52380718424e-11
2.42097281731e-12
7.29918618819e-11
2.24619833388e-12
7.09100823008e-11
2.08176888053e-12
6.89823342594e-11
1.92773828212e-12
6.71983908145e-11
1.78393445843e-12
6.55483576934e-11
1.65002492779e-12
6.4022781173e-11
1.52556896332e-12
6.26127159915e-11
1.41005828814e-12
6.13097617532e-11
1.30294786367e-12
6.01060771073e-11
1.20367882523e-12
5.89943767717e-11
1.11169493435e-12
5.79679176101e-11
1.02645422272e-12
5.70204762491e-11
9.47436759151e-13
5.61463222614e-11
8.74149772271e-13
5.53401876485e-11
8.0613066653e-13
5.45972351997e-11
7.42948826666e-13
5.39130253087e-11
6.8420648223e-13
5.32834828473e-11
6.29539326312e-13
5.27048628512e-11
5.78617029266e-13
5.21737158419e-11
5.31144275692e-13
5.16868507685e-11
4.86862472378e-13
5.12412955275e-11
4.45552841883e-13
5.08342519963e-11
4.07041237905e-13
5.04630441603e-11
3.71205722107e-13
5.01250543697e-11
3.37987764906e-13
4.9817643564e-11
3.07408947004e-13
4.95380464202e-11
2.79595366837e-13
4.92832309865e-11
2.54813824589e-13
4.90497038116e-11
2.33525657045e-13
4.88332339226e-11
2.16468558797e-13
4.8628449638e-11
2.04783076304e-13
4.8428236126e-11
2.00212530452e-13
4.82228129607e-11
2.05422344772e-13
4.79983094953e-11
2.24502892349e-13
4.77346188909e-11
2.63690170368e-13
4.74026686509e-11
3.31949989274e-13
4.69635650318e-11
4.39103623308e-13
5.63375187844e-13
9.5341092913e-10
2.28663825745e-10
8.59640078507e-10
2.93128255731e-10
7.45073133899e-10
2.43306100804e-10
6.41855337902e-10
1.85808588545e-10
5.5661555356e-10
1.39878302017e-10
4.88153421612e-10
1.06091494807e-10
4.33448665004e-10
8.16672326031e-11
3.89549932125e-10
6.39067746866e-11
3.54044662577e-10
5.07930601662e-11
3.25076913855e-10
4.09276870182e-11
3.01247552031e-10
3.33618705265e-11
2.81504532458e-10
2.74516341339e-11
2.65052237088e-10
2.27551644959e-11
2.51283207697e-10
1.89645376884e-11
2.39728558341e-10
1.58612628795e-11
2.30022381593e-10
1.32874041185e-11
2.21876200174e-10
1.11266871953e-11
2.1506051578e-10
9.29198785873e-12
2.09391357644e-10
7.7169230882e-12
2.04720368463e-10
6.35010932082e-12
2.0092741295e-10
5.15117772138e-12
1.97915004237e-10
4.08796405013e-12
1.95604054599e-10
3.13449581585e-12
1.93930602782e-10
2.26952878168e-12
1.92843269266e-10
1.47546784656e-12
1.92301260634e-10
7.37560872673e-13
1.9227279155e-10
4.32895316555e-14
1.92733827349e-10
-6.18095370533e-13
1.93667072137e-10
-1.25592856266e-12
1.95061147363e-10
-1.87840430125e-12
1.96909916052e-10
-2.49278719476e-12
1.99211915538e-10
-3.10556914344e-12
2.01969866149e-10
-3.72258089369e-12
2.05190227512e-10
-4.34906311147e-12
2.08882774307e-10
-4.98969884671e-12
2.13060164297e-10
-5.64860720766e-12
2.17737468778e-10
-6.32929597676e-12
2.22931634589e-10
-7.03456964312e-12
2.28660842498e-10
-7.76638805959e-12
2.34943725249e-10
-8.52567085488e-12
2.41798404742e-10
-9.31204317463e-12
2.49241308911e-10
-1.01235208703e-11
2.57285729903e-10
-1.09561373956e-11
2.65940094872e-10
-1.18035222644e-11
2.75205934075e-10
-1.26564512591e-11
2.85075557683e-10
-1.35024030857e-11
2.95529486631e-10
-1.43251737078e-11
3.06533732102e-10
-1.51046175481e-11
3.18037072188e-10
-1.58165987992e-11
3.29968535792e-10
-1.64332425923e-11
3.42235354411e-10
-1.69235672509e-11
3.5472167961e-10
-1.72545530816e-11
3.67288366234e-10
-1.73926585953e-11
3.7977409169e-10
-1.73057403416e-11
3.91998009133e-10
-1.69652768866e-11
4.0376403484e-10
-1.63487532552e-11
4.14866743523e-10
-1.544202825e-11
4.25098703741e-10
-1.42414757259e-11
4.34258911816e-10
-1.27556481743e-11
4.4216178992e-10
-1.10061667786e-11
4.48646013143e-10
-9.02753154627e-12
4.53582292178e-10
-6.8656241881e-12
4.56879223074e-10
-4.57487133508e-12
4.58486494762e-10
-2.21432434532e-12
4.58395110899e-10
1.56786016752e-13
4.56634788646e-10
2.48325093172e-12
4.5326920946e-10
4.71704064409e-12
4.48390112372e-10
6.81894538977e-12
4.42111233372e-10
8.7586841438e-12
4.34562855138e-10
1.05138616082e-11
4.25887313367e-10
1.20684232066e-11
4.16235416198e-10
1.34112189882e-11
4.05763478336e-10
1.45350601898e-11
3.94630599885e-10
1.54363746878e-11
3.82995884804e-10
1.611534484e-11
3.71015450743e-10
1.65762827185e-11
3.58839254468e-10
1.68279666495e-11
3.46607909161e-10
1.68837085716e-11
3.34449753033e-10
1.67610195966e-11
3.22478443404e-10
1.64808579008e-11
3.10791289894e-10
1.60665486621e-11
2.99468441867e-10
1.55425328867e-11
2.88572927205e-10
1.49331211189e-11
2.78151442888e-10
1.42614025606e-11
2.682357284e-10
1.35484083726e-11
2.58844327834e-10
1.28125683016e-11
2.49984548956e-10
1.20694495651e-11
2.41654458198e-10
1.13317329038e-11
2.33844787094e-10
1.0609365295e-11
2.26540669138e-10
9.90982716416e-12
2.19723160049e-10
9.23846007076e-12
2.13370525777e-10
8.59881262117e-12
2.07459300924e-10
7.99297539132e-12
2.01965135827e-10
7.42188659268e-12
1.96863455504e-10
6.88559935883e-12
1.92129958739e-10
6.38350756356e-12
1.87740983207e-10
5.91453148987e-12
1.83673762795e-10
5.47726676498e-12
1.79906598233e-10
5.07010140964e-12
1.76418961046e-10
4.69130587891e-12
1.73191545517e-10
4.33910108136e-12
1.70206282462e-10
4.01170862302e-12
1.67446323925e-10
3.70738725475e-12
1.64896007623e-10
3.424458633e-12
1.62540806079e-10
3.16132526804e-12
1.60367265682e-10
2.9164827797e-12
1.58362937618e-10
2.68852850772e-12
1.56516303374e-10
2.47616794742e-12
1.54816694517e-10
2.2782205966e-12
1.53254207445e-10
2.09362640914e-12
1.51819610893e-10
1.92145436255e-12
1.50504244913e-10
1.76091446187e-12
1.49299906979e-10
1.61137505055e-12
1.48198721462e-10
1.47238739106e-12
1.47192985222e-10
1.34372037564e-12
1.46274982044e-10
1.22540876086e-12
1.45436754488e-10
1.11781978447e-12
1.44669821222e-10
1.02174423942e-12
1.43964824058e-10
9.38520235102e-13
1.43311091078e-10
8.70199297787e-13
1.42696107528e-10
8.19764722327e-13
1.42104914091e-10
7.91404486269e-13
1.41519525587e-10
7.90809782332e-13
1.40918666436e-10
8.25361475864e-13
1.40278649271e-10
9.03707255545e-13
1.39577532228e-10
1.03306731096e-12
1.38808892199e-10
1.20774398319e-12
1.36744776173e-12
9.76221976159e-10
1.89941847238e-10
9.62952497765e-10
3.06397727916e-10
9.05991203646e-10
3.00267388454e-10
8.33499283319e-10
2.58300502254e-10
7.604733878e-10
2.12904190635e-10
6.93328794069e-10
1.73236081488e-10
6.34140752646e-10
1.40855266905e-10
5.83017910349e-10
1.15029609851e-10
5.39280703142e-10
9.4530260243e-11
5.02010362917e-10
7.81980201507e-11
4.70287421226e-10
6.5084805159e-11
4.43283481947e-10
5.4455566421e-11
4.2028667708e-10
4.57519624329e-11
4.00699133105e-10
3.8552074833e-11
3.84024166457e-10
3.25362227888e-11
3.69851054482e-10
2.74605094938e-11
3.57840598362e-10
2.31371368464e-11
3.47712586167e-10
1.94199937685e-11
3.39235347312e-10
1.61941558343e-11
3.32217227861e-10
1.33682229007e-11
3.26499701621e-10
1.08686983213e-11
3.21951824946e-10
8.63583538847e-12
3.18465774255e-10
6.62054147161e-12
3.15953248932e-10
4.78204945467e-12
3.1434256248e-10
3.08615003587e-12
3.13576281355e-10
1.50383822214e-12
3.13609298574e-10
1.02690340664e-14
3.14407252698e-10
-1.41605216163e-12
3.15945217937e-10
-2.79389583771e-12
3.18206609618e-10
-4.13979725253e-12
3.21182253741e-10
-5.46843179413e-12
3.2486957781e-10
-6.79289274022e-12
3.29271883099e-10
-8.12488472088e-12
3.34397662349e-10
-9.47483973824e-12
3.40259925842e-10
-1.08519585038e-11
3.46875499539e-10
-1.22641756641e-11
3.54264255255e-10
-1.37180449947e-11
3.624482318e-10
-1.52185378249e-11
3.71450601003e-10
-1.67687471887e-11
3.81294431815e-10
-1.83694896707e-11
3.92001202228e-10
-2.00187996421e-11
4.03589012443e-10
-2.17113149948e-11
4.16070456495e-10
-2.34375632263e-11
4.29450124955e-10
-2.51831702097e-11
4.43721731261e-10
-2.6928034836e-11
4.58864891214e-10
-2.86455379893e-11
4.74841630283e-10
-3.03018855766e-11
4.91592757537e-10
-3.18557154233e-11
5.09034313365e-10
-3.32581233521e-11
5.27054375466e-10
-3.44532715972e-11
5.45510569031e-10
-3.53797263259e-11
5.64228670768e-10
-3.59726191437e-11
5.83002693215e-10
-3.61666447927e-11
6.01596790716e-10
-3.58998014005e-11
6.1974922597e-10
-3.51176763245e-11
6.37178502275e-10
-3.3777994936e-11
6.53591597159e-10
-3.1855090705e-11
6.68694050728e-10
-2.93438997374e-11
6.82201443045e-10
-2.6263014876e-11
6.93851555541e-10
-2.26562582338e-11
7.03416259635e-10
-1.85922201275e-11
7.10712002973e-10
-1.41613579645e-11
7.15607744837e-10
-9.47061027955e-12
7.1802942037e-10
-4.63600370767e-12
7.17960476264e-10
2.25719190429e-13
7.15438666957e-10
5.0050424562e-12
7.10549959781e-10
9.60572321279e-12
7.03420821339e-10
1.3948053039e-11
6.94210182554e-10
1.79692863551e-11
6.83102067408e-10
2.16219353642e-11
6.7029933437e-10
2.48711107005e-11
6.56018491775e-10
2.76920129956e-11
6.40485236986e-10
3.00682640741e-11
6.23930287007e-10
3.19912725137e-11
6.06585149394e-10
3.34604296925e-11
5.88677673712e-10
3.44837059557e-11
5.70427432434e-10
3.50781562832e-11
5.5204116477e-10
3.52699261144e-11
5.33708616631e-10
3.50935194309e-11
5.15599125281e-10
3.45903032575e-11
4.97859218483e-10
3.38064118751e-11
4.80611371916e-10
3.27903385661e-11
4.63953918373e-10
3.15905363998e-11
4.47961979368e-10
3.02533060627e-11
4.32689201196e-10
2.88211536165e-11
4.18170044385e-10
2.73316947913e-11
4.04422376816e-10
2.58170891738e-11
3.91450157727e-10
2.43039263734e-11
3.79246044457e-10
2.28134550162e-11
3.67793808043e-10
2.13620420597e-11
3.57070486819e-10
1.99617615393e-11
3.47048247919e-10
1.86210334865e-11
3.37695951383e-10
1.73452553629e-11
3.28980433285e-10
1.61373895644e-11
3.20867532632e-10
1.49984860934e-11
3.13322895061e-10
1.39281324086e-11
3.06312585012e-10
1.29248297967e-11
2.99803539579e-10
1.19863014429e-11
2.93763891779e-10
1.11097392497e-11
2.88163190182e-10
1.02919983319e-11
2.82972535393e-10
9.52974736904e-12
2.78164652942e-10
8.81958324707e-12
2.73713916099e-10
8.1581167889e-12
2.69596331758e-10
7.5420362263e-12
2.65789497327e-10
6.96815336572e-12
2.62272536881e-10
6.43343736277e-12
2.59026020306e-10
5.93503955115e-12
2.56031870113e-10
5.47031300538e-12
2.53273256494e-10
5.03682934851e-12
2.50734482525e-10
4.63239584842e-12
2.48400857596e-10
4.2550749802e-12
2.46258558585e-10
3.90320945877e-12
2.44294474634e-10
3.57545517147e-12
2.42496032924e-10
3.27082554282e-12
2.40850999384e-10
2.98875052677e-12
2.3934725037e-10
2.72915465327e-12
2.37972509126e-10
2.49255808491e-12
2.36714045598e-10
2.28020511643e-12
2.35558341488e-10
2.09422191676e-12
2.34490738275e-10
1.93780043702e-12
2.33495111061e-10
1.81539015976e-12
2.32553669161e-10
1.73284503674e-12
2.31647089707e-10
1.69738822909e-12
2.30755396421e-10
1.71705419812e-12
2.29860342907e-10
1.79876072692e-12
2.28950598305e-10
1.9428123273e-12
2.28030107686e-10
2.12823523441e-12
2.27763702236e-12
9.71743501942e-10
1.55698342573e-10
9.86579079148e-10
2.91562143541e-10
9.67939236384e-10
3.18907224122e-10
9.27442358682e-10
2.987973725e-10
8.76947134619e-10
2.6339940688e-10
8.2398152493e-10
2.26201683182e-10
7.72701614938e-10
1.92135168831e-10
7.25146238425e-10
1.62584978274e-10
6.82133921924e-10
1.37542568651e-10
6.4381944029e-10
1.16512493708e-10
6.10019549537e-10
9.88846878591e-11
5.80396758112e-10
8.40783498329e-11
5.54559627957e-10
7.1589084623e-11
5.3211528942e-10
6.09964054695e-11
5.12695165704e-10
5.1956338679e-11
4.95966002525e-10
4.4189664944e-11
4.81633068356e-10
3.74700633944e-11
4.69439371009e-10
3.16136836271e-11
4.59163012097e-10
2.64705074035e-11
4.50613825729e-10
2.19174021005e-11
4.4362990021e-10
1.78526168642e-11
4.38074278052e-10
1.41914507966e-11
4.33831963134e-10
1.08628498887e-11
4.3080727544e-10
7.80673093797e-12
4.28921547783e-10
4.97187180254e-12
4.28111137319e-10
2.31424316949e-12
4.28325714929e-10
-2.04313681592e-13
4.29526792215e-10
-2.61713407761e-12
4.31686445746e-10
-4.95355347227e-12
4.3478620538e-10
-7.2395603839e-12
4.38816067228e-10
-9.49829646997e-12
4.43773596391e-10
-1.17504239663e-11
4.49663084341e-10
-1.40143738897e-11
4.56494725779e-10
-1.63064814358e-11
4.6428377771e-10
-1.86410096437e-11
4.73049661787e-10
-2.10300577653e-11
4.82814967266e-10
-2.34833472072e-11
4.93604309283e-10
-2.60078751372e-11
5.05442993087e-10
-2.86074247371e-11
5.18355433225e-10
-3.12819218496e-11
5.3236327525e-10
-3.40266318958e-11
5.47483171215e-10
-3.68311992325e-11
5.63724167389e-10
-3.96785456331e-11
5.81084679433e-10
-4.25436663319e-11
5.99549055469e-10
-4.53923927581e-11
6.19083767914e-10
-4.81802300708e-11
6.39633328111e-10
-5.08514231944e-11
6.61116088322e-10
-5.3338450861e-11
6.83420175461e-10
-5.55621836548e-11
7.06399886888e-10
-5.74329542554e-11
7.29872951736e-10
-5.88527607288e-11
7.53619108712e-10
-5.97187442703e-11
7.77380448743e-10
-5.99279519967e-11
8.0086391137e-10
-5.93832306799e-11
8.2374620186e-10
-5.79999335812e-11
8.4568123261e-10
-5.57129932392e-11
8.66310000995e-10
-5.24838282641e-11
8.85272611833e-10
-4.83064822053e-11
9.02221917651e-10
-4.32122957093e-11
9.16837975775e-10
-3.72722956002e-11
9.28842222708e-10
-3.0596451364e-11
9.38010036427e-10
-2.33291616992e-11
9.44180313254e-10
-1.56408833965e-11
9.47260930109e-10
-7.71662345149e-12
9.47229505825e-10
2.57133785809e-13
9.44129650432e-10
8.10488142065e-12
9.38063717619e-10
1.56716330595e-11
9.29183618875e-10
2.28281227467e-11
9.1768129493e-10
2.94715757878e-11
9.03780013795e-10
3.55231773187e-11
8.87726985912e-10
4.0924095574e-11
8.69787193653e-10
4.56317593613e-11
8.50237991541e-10
4.96174182728e-11
8.29363964223e-10
5.28652507854e-11
8.07451651562e-10
5.53726929244e-11
7.8478398054e-10
5.715132791e-11
7.61634492856e-10
5.82275958424e-11
7.38261665688e-10
5.86427066648e-11
7.14903737324e-10
5.84514030707e-11
6.91774455763e-10
5.77195423425e-11
6.69060070433e-10
5.65207571584e-11
6.46917728447e-10
5.49326430944e-11
6.25475259353e-10
5.30329706343e-11
6.04832185287e-10
5.08963478823e-11
5.8506169562e-10
4.85916135415e-11
5.66213287891e-10
4.61800752113e-11
5.48315784396e-10
4.3714567623e-11
5.31380476036e-10
4.12392118356e-11
5.15404199376e-10
3.87897107353e-11
5.00372212419e-10
3.63940099063e-11
4.86260785376e-10
3.40731711163e-11
4.73039466408e-10
3.1842336512e-11
4.60673012523e-10
2.97116946602e-11
4.49122998645e-10
2.76873901052e-11
4.38349129997e-10
2.57723425069e-11
4.28310291156e-10
2.39669600332e-11
4.18965366498e-10
2.22697441315e-11
4.10273867395e-10
2.06777910503e-11
4.02196398067e-10
1.91871998027e-11
3.94694989745e-10
1.77933985533e-11
3.87733327924e-10
1.64914016717e-11
3.81276894808e-10
1.52760093931e-11
3.75293044303e-10
1.41419607971e-11
3.69751024724e-10
1.30840497574e-11
3.64621960375e-10
1.20972120506e-11
3.59878801633e-10
1.1176590811e-11
3.55496249898e-10
1.03175863052e-11
3.51450662901e-10
9.51589532874e-12
3.47719943134e-10
8.76754469994e-12
3.44283411797e-10
8.06892303031e-12
3.41121668349e-10
7.41681449021e-12
3.3821643578e-10
6.80843831696e-12
3.35550389811e-10
6.24149762079e-12
3.33106970817e-10
5.7142412253e-12
3.3087017616e-10
5.22554205573e-12
3.28824332523e-10
4.77499537167e-12
3.26953849041e-10
4.3630388456e-12
3.25242957779e-10
3.99109389689e-12
3.23675455946e-10
3.66172151641e-12
3.22234481039e-10
3.37877342413e-12
3.20902376027e-10
3.14749359817e-12
3.19660746871e-10
2.97447304509e-12
3.18490881806e-10
2.86725260016e-12
3.17374793691e-10
2.83314210151e-12
3.16297217244e-10
2.87633739103e-12
3.15248633591e-10
2.99139652772e-12
3.14227469855e-10
3.14939963602e-12
3.27376817091e-12
9.63919845009e-10
1.29278493685e-10
9.8760011954e-10
2.67881860515e-10
9.89567091891e-10
3.16940243296e-10
9.71907844798e-10
3.1645661112e-10
9.41569092825e-10
2.93738150145e-10
9.0459753169e-10
2.63173235471e-10
8.65188341907e-10
2.31544349701e-10
8.25989182863e-10
2.01784128384e-10
7.88556745525e-10
1.74974997049e-10
7.53730363643e-10
1.51338866659e-10
7.2189663581e-10
1.30718406776e-10
6.93166256835e-10
1.12808719921e-10
6.67488575863e-10
9.72667567404e-11
6.44724265667e-10
8.37607068629e-11
6.24690577502e-10
7.19900180984e-11
6.07188953665e-10
6.1691280114e-11
5.92021424469e-10
5.26375840101e-11
5.78999952206e-10
4.4635147419e-11
5.67951391157e-10
3.75190601015e-11
5.58719762874e-10
3.11490221783e-11
5.51166921399e-10
2.54054502921e-11
5.45172283768e-10
2.0186080571e-11
5.40632046208e-10
1.54030797994e-11
5.37458144717e-10
1.09806250266e-11
5.35577115578e-10
6.85289380771e-12
5.3492894643e-10
2.96240550202e-12
5.35465966804e-10
-7.41340520937e-13
5.37151798364e-10
-4.30297169225e-12
5.39960371983e-10
-7.76213269185e-12
5.43875009996e-10
-1.11542034682e-11
5.4888755571e-10
-1.45108466684e-11
5.54997531929e-10
-1.78604039909e-11
5.6221130484e-10
-2.12281498536e-11
5.70541225713e-10
-2.4636404497e-11
5.80004718273e-10
-2.81045034366e-11
5.90623275845e-10
-3.16486154812e-11
6.02421327553e-10
-3.52813978629e-11
6.15424929143e-10
-3.90114743273e-11
6.29660229645e-10
-4.28427213703e-11
6.45151662988e-10
-4.67733496939e-11
6.61919812525e-10
-5.07947741807e-11
6.79978899982e-10
-5.48902775251e-11
6.99333858157e-10
-5.90334926276e-11
7.19976963706e-10
-6.31867585472e-11
7.4188403281e-10
-6.72994463134e-11
7.65010224343e-10
-7.13064037546e-11
7.89285551766e-10
-7.51267304752e-11
8.14610280449e-10
-7.86631571018e-11
8.40850475408e-10
-8.18023539733e-11
8.67834060937e-10
-8.44165130433e-11
8.95347839508e-10
-8.63665106885e-11
9.23135974655e-10
-8.75068491702e-11
9.50900443591e-10
-8.76923894526e-11
9.78303897272e-10
-8.67866520748e-11
1.00497522446e-09
-8.4671228301e-11
1.03051792861e-09
-8.12556654074e-11
1.05452121873e-09
-7.64870877426e-11
1.07657350671e-09
-7.03587417432e-11
1.0962777662e-09
-6.29165299654e-11
1.11326790631e-09
-5.42624145568e-11
1.12722494855e-09
-4.4553477451e-11
1.13789147955e-09
-3.39956822355e-11
1.14508274919e-09
-2.28321489003e-11
1.14869303093e-09
-1.13269076946e-11
1.14869648121e-09
2.53674131555e-13
1.145142671e-09
1.16586754765e-11
1.13814801193e-09
2.26662694115e-11
1.12788501904e-09
3.30910868721e-11
1.11457139307e-09
4.27851675666e-11
1.09846029634e-09
5.16342353103e-11
1.07983229708e-09
5.95520523745e-11
1.0589887303e-09
6.64752809588e-11
1.03624586036e-09
7.23602411522e-11
1.01192920556e-09
7.71818575228e-11
9.86367571884e-10
8.09342782744e-11
9.59886634857e-10
8.36322170667e-11
9.32802208823e-10
8.53119750334e-11
9.05413585238e-10
8.60312849826e-11
8.77997449927e-10
8.58674950715e-11
8.50802884568e-10
8.49140666871e-11
8.2404782985e-10
8.32757733332e-11
7.97917188626e-10
8.10632483865e-11
7.72562534286e-10
7.83875916563e-11
7.48103218421e-10
7.53556330357e-11
7.24628566069e-10
7.20662376766e-11
7.02200812296e-10
6.86078031667e-11
6.80858451807e-10
6.50569045225e-11
6.60619726219e-10
6.14779159278e-11
6.41486038406e-10
5.79233789564e-11
6.23445149478e-10
5.44348810047e-11
6.06474069906e-10
5.10442344369e-11
5.90541602134e-10
4.77747894819e-11
5.75610524162e-10
4.46427591127e-11
5.61639426741e-10
4.16584751805e-11
5.48584229817e-10
3.88275281177e-11
5.36399412016e-10
3.61517674667e-11
5.25038989017e-10
3.36301575887e-11
5.14457277171e-10
3.12594941157e-11
5.04609475856e-10
2.9034992997e-11
4.95452099633e-10
2.69507672695e-11
4.86943286843e-10
2.50002074846e-11
4.79043008295e-10
2.31762814608e-11
4.7171319532e-10
2.1471767718e-11
4.64917803857e-10
1.98794355726e-11
4.58622827488e-10
1.83921831156e-11
4.52796270421e-10
1.70031429069e-11
4.47408088342e-10
1.57057636945e-11
4.42430103806e-10
1.44938754517e-11
4.37835900396e-10
1.33617439288e-11
4.33600699148e-10
1.2304120331e-11
4.29701218854e-10
1.13162910336e-11
4.26115521636e-10
1.03941319895e-11
4.22822843903e-10
9.53417198502e-12
4.19803413285e-10
8.7336686659e-12
4.17038251888e-10
7.9907004457e-12
4.14508968125e-10
7.30427632471e-12
4.12197541312e-10
6.674463036e-12
4.10086108454e-10
6.10252436429e-12
4.08156769446e-10
5.59105837651e-12
4.06391439293e-10
5.14410173862e-12
4.04771792418e-10
4.76713898263e-12
4.0327936794e-10
4.46689647421e-12
4.01895929146e-10
4.25069083353e-12
4.00604177418e-10
4.12489381968e-12
3.99388823863e-10
4.09169142891e-12
3.98237529772e-10
4.14269132671e-12
3.97139440463e-10
4.24748964841e-12
4.33755426789e-12
9.57522276106e-10
1.09256213527e-10
9.82448185074e-10
2.42955942648e-10
9.94825120474e-10
3.04563299223e-10
9.91915118411e-10
3.19366604179e-10
9.7686987787e-10
3.08783381325e-10
9.53795867202e-10
2.86247236608e-10
9.26148611235e-10
2.59191596074e-10
8.96464314825e-10
2.3146841518e-10
8.66483122993e-10
2.04956179262e-10
8.37342188172e-10
1.80479791865e-10
8.09747750453e-10
1.58312834888e-10
7.84108189483e-10
1.38448271301e-10
7.60631109021e-10
1.20743827636e-10
7.39392118059e-10
1.04999688293e-10
7.20382689663e-10
9.09994370037e-11
7.03543021855e-10
7.85309384897e-11
6.88784333615e-10
6.73962628841e-11
6.76003802521e-10
5.7415669231e-11
6.65094419653e-10
4.84284337814e-11
6.55951358255e-10
4.02920745043e-11
6.48475967263e-10
3.28808323395e-11
6.42578158801e-10
2.60838802415e-11
6.38177719159e-10
1.98035108194e-11
6.35204906275e-10
1.39534294909e-11
6.33600580746e-10
8.45721114254e-12
6.33316037189e-10
3.24694113096e-12
6.34312646833e-10
-1.73795779539e-12
6.36561378241e-10
-6.55171037965e-12
6.40042247e-10
-1.12430083355e-11
6.44743718358e-10
-1.58556812486e-11
6.50662068118e-10
-2.04292023293e-11
6.57800701325e-10
-2.49990424899e-11
6.66169418592e-10
-2.95968717294e-11
6.75783612639e-10
-3.42506023596e-11
6.86663370683e-10
-3.89842644043e-11
6.98832452611e-10
-4.38176993109e-11
7.12317108829e-10
-4.87660548402e-11
7.27144696707e-10
-5.38390616659e-11
7.43342049558e-10
-5.90400722444e-11
7.60933548993e-10
-6.43648455425e-11
7.79938849696e-10
-6.98000695384e-11
8.0037020802e-10
-7.53216285689e-11
8.22229372605e-10
-8.08926478585e-11
8.45504010591e-10
-8.6461384947e-11
8.70163668416e-10
-9.19590902208e-11
8.96155307125e-10
-9.72980261051e-11
9.23398510062e-10
-1.02369914579e-10
9.51780540147e-10
-1.07045165849e-10
9.81151521074e-10
-1.11173311119e-10
1.01132012664e-09
-1.14585092468e-10
1.04205026612e-09
-1.17096621837e-10
1.07305932749e-09
-1.1851588026e-10
1.10401855137e-09
-1.18651581449e-10
1.13455603421e-09
-1.17324101869e-10
1.16426269761e-09
-1.14377858086e-10
1.19270134447e-09
-1.09694278808e-10
1.21941870071e-09
-1.0320441155e-10
1.24396013966e-09
-9.49001502753e-11
1.26588656369e-09
-8.48429266931e-11
1.28479259104e-09
-7.31684187868e-11
1.30032473953e-09
-6.00856080313e-11
1.31219784985e-09
-4.58687807415e-11
1.32020779365e-09
-3.08420876371e-11
1.32423874873e-09
-1.5357864913e-11
1.32426403031e-09
2.28383039829e-13
1.32034060545e-09
1.55820835352e-11
1.31259879131e-09
3.0408059803e-11
1.30122962836e-09
4.44602197154e-11
1.28647246034e-09
5.75422999295e-11
1.26860434651e-09
6.95023088747e-11
1.24793169683e-09
8.02246581978e-11
1.22478361523e-09
8.96233161164e-11
1.19950607127e-09
9.76377370442e-11
1.17245607407e-09
1.04231805874e-10
1.14399530693e-09
1.09394996539e-10
1.11448305647e-09
1.13144419331e-10
1.08426863945e-09
1.15526345098e-10
1.05368381894e-09
1.16616060317e-10
1.02303584857e-09
1.1651542243e-10
9.92601764356e-10
1.15348110354e-10
9.62624373693e-10
1.13253126095e-10
9.33310136964e-10
1.10377449969e-10
9.04828877265e-10
1.06868818952e-10
8.77315053873e-10
1.0286942673e-10
8.50870223098e-10
9.85110413289e-11
8.25566284246e-10
9.3911717348e-11
8.01449142922e-10
8.91740234411e-11
7.7854249306e-10
8.43845454898e-11
7.56851497145e-10
7.96143564769e-11
7.36366218278e-10
7.49201432208e-11
7.17064718325e-10
7.0345719292e-11
6.98915783409e-10
6.59237107084e-11
6.81881270359e-10
6.16772597141e-11
6.65918089804e-10
5.7621644408e-11
6.5097985397e-10
5.37657536049e-11
6.37018224337e-10
5.01133876396e-11
6.23983996092e-10
4.66643771452e-11
6.11827956267e-10
4.34155259537e-11
6.00501549701e-10
4.0361392183e-11
5.89957384282e-10
3.74949258646e-11
5.80149602803e-10
3.48079826217e-11
5.71034145595e-10
3.22917327705e-11
5.62568924086e-10
2.99369837124e-11
5.54713922599e-10
2.77344319012e-11
5.47431242317e-10
2.56748585478e-11
5.40685099125e-10
2.37492815386e-11
5.34441784356e-10
2.19490741525e-11
5.28669595875e-10
2.02660598618e-11
5.23338744861e-10
1.8692591077e-11
5.18421242668e-10
1.72216188601e-11
5.13890770583e-10
1.58467596304e-11
5.09722534894e-10
1.4562364367e-11
5.0589310875e-10
1.33635949779e-11
5.02380262532e-10
1.22465118995e-11
4.99162784479e-10
1.12081756708e-11
4.96220294665e-10
1.02467634879e-11
4.93533057003e-10
9.36169822348e-12
4.9108179747e-10
8.55378163513e-12
4.88847540967e-10
7.82531285073e-12
4.86811486004e-10
7.18015496486e-12
4.84954943565e-10
6.62368002603e-12
4.8325937312e-10
6.16246594862e-12
4.81706544197e-10
5.80351926787e-12
4.80278809504e-10
5.55262855261e-12
4.78959311423e-10
5.41119004291e-12
4.77731442547e-10
5.37056096507e-12
4.76575737784e-10
5.40319513672e-12
5.45204954342e-12
9.52898849976e-10
9.38573587554e-11
9.76371685073e-10
2.19483097888e-10
9.93570916065e-10
2.87364058665e-10
9.9979014361e-10
3.1314736711e-10
9.95663358131e-10
3.12910157055e-10
9.83603620549e-10
2.98306964313e-10
9.66155048536e-10
2.76640158161e-10
9.45450857628e-10
2.5217259615e-10
9.23121837749e-10
2.27285189203e-10
9.00353533199e-10
2.03248086483e-10
8.77977211672e-10
1.80689146492e-10
8.56556037342e-10
1.59869435721e-10
8.36456085382e-10
1.40843769705e-10
8.1790155792e-10
1.23554205891e-10
8.01016468471e-10
1.07884516625e-10
7.85855568346e-10
9.36918288323e-11
7.72427019227e-10
8.08248022799e-11
7.60708856358e-10
6.91338224459e-11
7.50660836962e-10
5.84764436074e-11
7.42232887672e-10
4.87200143213e-11
7.35371061482e-10
3.97426491698e-11
7.30021680561e-10
3.1433251935e-11
7.26134163686e-10
2.36910186195e-11
7.23662903906e-10
1.64246803729e-11
7.22568462729e-10
9.55164362533e-12
7.22818273464e-10
2.99712193884e-12
7.2438699195e-10
-3.30668446514e-12
7.27256585194e-10
-9.42131149088e-12
7.31416238342e-10
-1.54026689828e-11
7.36862116491e-10
-2.13015664718e-11
7.43597005936e-10
-2.71640983564e-11
7.5162984817e-10
-3.30318907374e-11
7.60975168034e-10
-3.89421969512e-11
7.716523879e-10
-4.49278268297e-11
7.83685011419e-10
-5.10168916611e-11
7.97099653013e-10
-5.72323436534e-11
8.11924882361e-10
-6.35912858081e-11
8.28189846842e-10
-7.01040264889e-11
8.45922629122e-10
-7.67728534262e-11
8.65148292466e-10
-8.35905061775e-11
8.85886563324e-10
-9.05383358989e-11
9.08149100828e-10
-9.7584159608e-11
9.31936307396e-10
-1.04679845821e-10
9.57233646741e-10
-1.11758713385e-10
9.84007458186e-10
-1.18732888317e-10
1.0122002943e-09
-1.25490846316e-10
1.04172586676e-09