/*--------------------------------*- C++ -*----------------------------------*\
  =========                 |
  \\      /  F ield         | OpenFOAM: The Open Source CFD Toolbox
   \\    /   O peration     | Website:  https://openfoam.org
    \\  /    A nd           | Version:  7
     \\/     M anipulation  |
\*---------------------------------------------------------------------------*/
FoamFile
{
    version     2.0;
    format      ascii;
    class       volVectorField;
    location    "2160";
    object      U;
}
// * * * * * * * * * * * * * * * * * * * * * * * * * * * * * * * * * * * * * //

dimensions      [0 1 -1 0 0 0 0];

internalField   nonuniform List<vector> 
8192
(
(0.00104347215581 0.000156527844191 0)
(0.000759355567964 0.000127588742311 0)
(0.000549373759497 8.23930633102e-05 0)
(0.000414122582104 5.28581109384e-05 0)
(0.000326295812378 3.49686553047e-05 0)
(0.000267244356915 2.40827963598e-05 0)
(0.000225905567767 1.72559888232e-05 0)
(0.000195844423955 1.28051509554e-05 0)
(0.000173255078759 9.78419018731e-06 0)
(0.000155816519852 7.65436467571e-06 0)
(0.000142061341454 6.10080970257e-06 0)
(0.000131027010364 4.93351740426e-06 0)
(0.00012205964875 4.03384027348e-06 0)
(0.000114700675325 3.32512927294e-06 0)
(0.000108619305698 2.75623654184e-06 0)
(0.000103571076117 2.29198930765e-06 0)
(9.93715557856e-05 1.90752738459e-06 0)
(9.58791870934e-05 1.58483777768e-06 0)
(9.29837729175e-05 1.31057299281e-06 0)
(9.0598556515e-05 1.07464014798e-06 0)
(8.86546479725e-05 8.69265295821e-07 0)
(8.70970214786e-05 6.88358285847e-07 0)
(8.58815882938e-05 5.27072197187e-07 0)
(8.49730220022e-05 3.81491632115e-07 0)
(8.43431201224e-05 2.48408055337e-07 0)
(8.39695550031e-05 1.251551776e-07 0)
(8.38349118216e-05 9.48646158973e-09 0)
(8.39259413864e-05 -1.00517180151e-07 0)
(8.42329749829e-05 -2.06517134371e-07 0)
(8.47494625522e-05 -3.09970663202e-07 0)
(8.54716060132e-05 -4.12172479257e-07 0)
(8.63980653021e-05 -5.14285879584e-07 0)
(8.75297181865e-05 -6.17365395441e-07 0)
(8.88694578903e-05 -7.22371944181e-07 0)
(9.04220140397e-05 -8.30181008017e-07 0)
(9.21937828527e-05 -9.41583689393e-07 0)
(9.41926519276e-05 -1.05728026514e-06 0)
(9.64278037176e-05 -1.17786530732e-06 0)
(9.89094797888e-05 -1.30380335881e-06 0)
(0.000101648685598 -1.43539376446e-06 0)
(0.00010465681291 -1.57272349609e-06 0)
(0.000107945154793 -1.71560688487e-06 0)
(0.000111524286869 -1.8635121709e-06 0)
(0.000115403289522 -2.01547588263e-06 0)
(0.000119588790071 -2.17000845085e-06 0)
(0.000124083813514 -2.32499714185e-06 0)
(0.000128886446517 -2.47761638648e-06 0)
(0.00013398834326 -2.62425929436e-06 0)
(0.000139373133144 -2.76050801632e-06 0)
(0.000145014827292 -2.8811621529e-06 0)
(0.000150876358318 -2.98034364376e-06 0)
(0.000156908419319 -3.05169107052e-06 0)
(0.000163048785116 -3.08864763518e-06 0)
(0.000169222295457 -3.08483511548e-06 0)
(0.000175341653442 -3.03449515757e-06 0)
(0.000181309145804 -2.93296981222e-06 0)
(0.000187019329344 -2.77718716864e-06 0)
(0.000192362652179 -2.5661105048e-06 0)
(0.000197229885379 -2.30109954303e-06 0)
(0.000201517124881 -1.98611943119e-06 0)
(0.000205130989871 -1.62772825538e-06 0)
(0.000207993519378 -1.23478771638e-06 0)
(0.000210046200606 -8.17884213051e-07 0)
(0.0002112526009 -3.88511390564e-07 0)
(0.000211599247622 4.18644869672e-08 0)
(0.00021109469175 4.62686183291e-07 0)
(0.000209767043526 8.64951789661e-07 0)
(0.000207660552879 1.24152366096e-06 0)
(0.000204831909328 1.58709998541e-06 0)
(0.00020134684766 1.89793743696e-06 0)
(0.000197277407066 2.17147505914e-06 0)
(0.000192699901535 2.40599909302e-06 0)
(0.000187693435373 2.60043304131e-06 0)
(0.000182338692998 2.75427330442e-06 0)
(0.000176716743098 2.86763921201e-06 0)
(0.000170907686569 2.94137918909e-06 0)
(0.000164989100505 2.97716857402e-06 0)
(0.000159034346892 2.97754707009e-06 0)
(0.000153110896642 2.94586598658e-06 0)
(0.000147278851846 2.88614275531e-06 0)
(0.000141589831339 2.80284313152e-06 0)
(0.000136086328473 2.70062675998e-06 0)
(0.000130801575742 2.58409479293e-06 0)
(0.000125759879157 2.45757249254e-06 0)
(0.000120977332145 2.32494713372e-06 0)
(0.000116462790888 2.1895686417e-06 0)
(0.000112218989735 2.05420889193e-06 0)
(0.00010824368998 1.92106903659e-06 0)
(0.000104530779934 1.79182089386e-06 0)
(0.000101071271421 1.66766911601e-06 0)
(9.7854162709e-05 1.54942260308e-06 0)
(9.48671575835e-05 1.43756693369e-06 0)
(9.20972442769e-05 1.33233208354e-06 0)
(8.95311465985e-05 1.23375250056e-06 0)
(8.71556640473e-05 1.1417180534e-06 0)
(8.49579190451e-05 1.05601595379e-06 0)
(8.29255288745e-05 9.76364136527e-07 0)
(8.10467181853e-05 9.02437304407e-07 0)
(7.93103857566e-05 8.33886632747e-07 0)
(7.77061368707e-05 7.70354448148e-07 0)
(7.62242904826e-05 7.11484757982e-07 0)
(7.48558684044e-05 6.56930702538e-07 0)
(7.35925720699e-05 6.06359525857e-07 0)
(7.24267510467e-05 5.59455854254e-07 0)
(7.13513663423e-05 5.15923626579e-07 0)
(7.03599506229e-05 4.75487249066e-07 0)
(6.94465667254e-05 4.37892148627e-07 0)
(6.86057652198e-05 4.0290516884e-07 0)
(6.7832541247e-05 3.70314898731e-07 0)
(6.71222903636e-05 3.39932336443e-07 0)
(6.64707626306e-05 3.11591982322e-07 0)
(6.58740136294e-05 2.85153818805e-07 0)
(6.53283504152e-05 2.60506392259e-07 0)
(6.48302695402e-05 2.37571662149e-07 0)
(6.43763830592e-05 2.1631216954e-07 0)
(6.39633266776e-05 1.96741726083e-07 0)
(6.35876415899e-05 1.78941034775e-07 0)
(6.32456175403e-05 1.63080847737e-07 0)
(6.29330782708e-05 1.49456420509e-07 0)
(6.26450801499e-05 1.3853987763e-07 0)
(6.23754774788e-05 1.31061168835e-07 0)
(6.2116278889e-05 1.28136019489e-07 0)
(6.18566714155e-05 1.31470300654e-07 0)
(6.15815183719e-05 1.43681851103e-07 0)
(6.12690741672e-05 1.68761709035e-07 0)
(6.08878640268e-05 2.12447993136e-07 0)
(6.0394389557e-05 2.81026318917e-07 0)
(5.97528032409e-05 3.6056012022e-07 0)
(0.00121018299464 0.000302872692668 0)
(0.00116035264489 0.000315190825979 0)
(0.00102701645594 0.000238108967825 0)
(0.000887634221953 0.000171775607607 0)
(0.000767021370535 0.000124490768595 0)
(0.00066865214411 9.19813530365e-05 0)
(0.000589825335434 6.95230176892e-05 0)
(0.000526719102162 5.37054867548e-05 0)
(0.000475900540609 4.22917486937e-05 0)
(0.000434637808916 3.38480843674e-05 0)
(0.000400847658167 2.74524068396e-05 0)
(0.000372961334073 2.25025632499e-05 0)
(0.00034979633251 1.85971455509e-05 0)
(0.000330454684663 1.54624333935e-05 0)
(0.000314247530265 1.29074447847e-05 0)
(0.000300640601558 1.07959279435e-05 0)
(0.000289215092331 9.02860718958e-06 0)
(0.000279639498211 7.53171000727e-06 0)
(0.000271649198991 6.24940376926e-06 0)
(0.000265031504708 5.13871011331e-06 0)
(0.000259614580104 4.1660190375e-06 0)
(0.000255259147 3.30465527793e-06 0)
(0.000251852197655 2.53314951933e-06 0)
(0.000249302180724 1.83399005239e-06 0)
(0.000247535278111 1.19270747713e-06 0)
(0.000246492499136 5.97194136111e-07 0)
(0.000246127393398 3.71917618492e-08 0)
(0.000246404236095 -4.96098217292e-07 0)
(0.000247296575671 -1.01031141448e-06 0)
(0.000248786060481 -1.512149416e-06 0)
(0.000250861480586 -2.00755628391e-06 0)
(0.000253517972217 -2.50185013139e-06 0)
(0.000256756340279 -2.9998171674e-06 0)
(0.000260582459943 -3.50577233552e-06 0)
(0.000265006721164 -4.02358826991e-06 0)
(0.000270043480707 -4.5566923023e-06 0)
(0.000275710485168 -5.10802969027e-06 0)
(0.000282028226154 -5.67998987892e-06 0)
(0.000289019185336 -6.27429171695e-06 0)
(0.000296706923358 -6.89182311159e-06 0)
(0.000305114963194 -7.53243112785e-06 0)
(0.000314265416738 -8.19466024187e-06 0)
(0.000324177304841 -8.87544010411e-06 0)
(0.000334864527856 -9.56973013182e-06 0)
(0.000346333458526 -1.02701372566e-05 0)
(0.000358580154725 -1.09665351167e-05 0)
(0.000371587228361 -1.16457275595e-05 0)
(0.000385320459989 -1.22912145251e-05 0)
(0.000399725314746 -1.28831312478e-05 0)
(0.000414723589107 -1.3398437412e-05 0)
(0.00043021048973 -1.38114266843e-05 0)
(0.000446052501773 -1.40946050428e-05 0)
(0.00046208642934 -1.42199491361e-05 0)
(0.000478119973071 -1.41605089341e-05 0)
(0.000493934144527 -1.3892272365e-05 0)
(0.000509287708143 -1.33961718955e-05 0)
(0.000523923698152 -1.26600852486e-05 0)
(0.000537577886249 -1.16806549694e-05 0)
(0.000549988873957 -1.04647143746e-05 0)
(0.000560909249111 -9.03006616947e-06 0)
(0.00057011699396 -7.40534844499e-06 0)
(0.000577426115405 -5.62878719677e-06 0)
(0.000582695369761 -3.7458018675e-06 0)
(0.000585834059415 -1.80567897157e-06 0)
(0.000586804227623 1.42207537688e-07 0)
(0.000585619135709 2.05196677959e-06 0)
(0.000582338558788 3.88385780188e-06 0)
(0.000577061965973 5.60564871041e-06 0)
(0.000569920861276 7.19265783744e-06 0)
(0.000561071416647 8.62680886622e-06 0)
(0.000550688107844 9.89526591138e-06 0)
(0.000538958546922 1.09891792454e-05 0)
(0.000526079292502 1.19028715628e-05 0)
(0.000512252210062 1.26335531046e-05 0)
(0.000497680950201 1.31814599096e-05 0)
(0.00048256725475 1.3550200129e-05 0)
(0.000467107011335 1.37470672297e-05 0)
(0.000451486184723 1.37831205559e-05 0)
(0.000435876903804 1.36729185284e-05 0)
(0.00042043404572 1.34338918118e-05 0)
(0.000405292629311 1.30854342752e-05 0)
(0.000390566228327 1.26478478075e-05 0)
(0.000376346476206 1.2141292309e-05 0)
(0.000362703596859 1.15848701313e-05 0)
(0.000349687789624 1.09959284922e-05 0)
(0.00033733123599 1.03896123547e-05 0)
(0.000325650481146 9.77865661362e-06 0)
(0.000314648964579 9.17337809501e-06 0)
(0.000304319516987 8.58181468265e-06 0)
(0.000294646691989 8.00995850107e-06 0)
(0.000285608850679 7.46203704836e-06 0)
(0.000277179958928 6.94080701123e-06 0)
(0.000269331089089 6.44783633398e-06 0)
(0.000262031639521 5.98375991987e-06 0)
(0.000255250298452 5.54850164305e-06 0)
(0.000248955785116 5.14146079446e-06 0)
(0.000243117402846 4.76166429004e-06 0)
(0.000237705437441 4.407888034e-06 0)
(0.000232691431058 4.07875153491e-06 0)
(0.000228048357939 3.77279021065e-06 0)
(0.0002237507242 3.48850945005e-06 0)
(0.000219774609907 3.22442422127e-06 0)
(0.000216097668088 2.9790873689e-06 0)
(0.000212699092191 2.75110937937e-06 0)
(0.000209559560769 2.53917179813e-06 0)
(0.000206661165927 2.34203622807e-06 0)
(0.000203987330112 2.15855039357e-06 0)
(0.000201522714235 1.98765265519e-06 0)
(0.000199253118651 1.82837608056e-06 0)
(0.000197165377256 1.67985323829e-06 0)
(0.000195247243736 1.54132277435e-06 0)
(0.000193487267716 1.4121390744e-06 0)
(0.000191874657211 1.29178642461e-06 0)
(0.000190399122203 1.17989959243e-06 0)
(0.000189050692278 1.07629320995e-06 0)
(0.00018781949905 9.81003333032e-07 0)
(0.00018669551138 8.94345696837e-07 0)
(0.000185668208454 8.16997160963e-07 0)
(0.000184726172979 7.50109370974e-07 0)
(0.000183856585687 6.95467428213e-07 0)
(0.000183044607108 6.55710591124e-07 0)
(0.000182272653836 6.34634890701e-07 0)
(0.000181519641394 6.37588561346e-07 0)
(0.000180760442895 6.71913195656e-07 0)
(0.000179966282052 7.47134352584e-07 0)
(0.000179107956159 8.7361107215e-07 0)
(0.000178167311633 1.05398246816e-06 0)
(0.000177160775767 1.23572668773e-06 0)
(0.00122478206474 0.000267907630709 0)
(0.00124107166331 0.000383696629534 0)
(0.0011961239689 0.000347887033125 0)
(0.00111327391166 0.000284229818111 0)
(0.00102014250952 0.000225780795297 0)
(0.000930433396397 0.000178769648829 0)
(0.000849580509898 0.000142414399685 0)
(0.000778981544317 0.000114519286104 0)
(0.000718271112635 9.30069250619e-05 0)
(0.000666426282278 7.62404525881e-05 0)
(0.000622270581851 6.30058724388e-05 0)
(0.000584685378031 5.24206083551e-05 0)
(0.000552684901777 4.38445612345e-05 0)
(0.000525430918518 3.68106320137e-05 0)
(0.00050222291172 3.09743908277e-05 0)
(0.000482480141401 2.60786647119e-05 0)
(0.00046572265782 2.19288473867e-05 0)
(0.000451554038099 1.83756682414e-05 0)
(0.000439646677427 1.53030905104e-05 0)
(0.00042972964811 1.26197326218e-05 0)
(0.000421578834868 1.02527206673e-05 0)
(0.000415008977003 8.14323164071e-06 0)
(0.000409867263489 6.24322386397e-06 0)
(0.00040602817484 4.51301007126e-06 0)
(0.000403389319304 2.91943544476e-06 0)
(0.000401868060055 1.43449542068e-06 0)
(0.000401398771154 3.4277482062e-08 0)
(0.000401930592814 -1.30185442059e-06 0)
(0.000403425581206 -2.59188761624e-06 0)
(0.000405857169635 -3.85164899442e-06 0)
(0.00040920887255 -5.09518015289e-06 0)
(0.000413473172193 -6.33501560555e-06 0)
(0.000418650534982 -7.58237799333e-06 0)
(0.000424748509087 -8.84729782381e-06 0)
(0.000431780856442 -1.01386607043e-05 0)
(0.000439766672244 -1.14641810379e-05 0)
(0.000448729443068 -1.28302982217e-05 0)
(0.000458695991715 -1.42419887795e-05 0)
(0.000469695252994 -1.57024865589e-05 0)
(0.000481756821004 -1.72129027364e-05 0)
(0.000494909205788 -1.87717394027e-05 0)
(0.000509177737389 -2.03742949537e-05 0)
(0.00052458206012 -2.2011968398e-05 0)
(0.000541133172128 -2.36714831834e-05 0)
(0.000558829987978 -2.53340711008e-05 0)
(0.000577655438384 -2.6974682288e-05 0)
(0.000597572173758 -2.8561317942e-05 0)
(0.000618518008205 -3.00546131017e-05 0)
(0.000640401325378 -3.14078221768e-05 0)
(0.000663096760852 -3.25673690813e-05 0)
(0.000686441564478 -3.34741078891e-05 0)
(0.000710233113471 -3.40653902242e-05 0)
(0.000734228072949 -3.42779541683e-05 0)
(0.000758143669716 -3.4051546715e-05 0)
(0.000781661450679 -3.33330900551e-05 0)
(0.000804433746077 -3.20811188424e-05 0)
(0.000826092863638 -3.02701561312e-05 0)
(0.000846262814648 -2.78946402965e-05 0)
(0.000864573116015 -2.49719443522e-05 0)
(0.000880673919095 -2.15439520079e-05 0)
(0.000894251401713 -1.76766410712e-05 0)
(0.000905042088069 -1.34572685777e-05 0)
(0.000912844638598 -8.98910823337e-06 0)
(0.000917527785733 -4.38420995392e-06 0)
(0.000919033533846 2.44803332596e-07 0)
(0.000917375451661 4.79250776827e-06 0)
(0.000912632721112 9.1665688684e-06 0)
(0.000904941299917 1.32908789944e-05 0)
(0.000894483842492 1.71059011193e-05 0)
(0.000881479839975 2.05669100624e-05 0)
(0.000866176897138 2.36413017005e-05 0)
(0.000848843408733 2.63060684696e-05 0)
(0.000829762386407 2.85461275289e-05 0)
(0.000809225935356 3.0353694209e-05 0)
(0.000787529879297 3.17284957008e-05 0)
(0.000764968206788 3.26783927515e-05 0)
(0.000741827267934 3.32199186769e-05 0)
(0.000718379902211 3.3378326199e-05 0)
(0.000694879860097 3.31869049776e-05 0)
(0.000671556954824 3.26855431413e-05 0)
(0.000648613340009 3.19186947438e-05 0)
(0.000626221177855 3.09330377298e-05 0)
(0.000604521785785 2.97751408119e-05 0)
(0.000583626174555 2.8489413519e-05 0)
(0.000563616755561 2.7116519673e-05 0)
(0.000544549917172 2.56923283795e-05 0)
(0.000526459149569 2.42473847929e-05 0)
(0.000509358422107 2.28068219374e-05 0)
(0.000493245569397 2.13906049991e-05 0)
(0.0004781055056 2.00139963033e-05 0)
(0.000463913148712 1.86881418305e-05 0)
(0.000450635990232 1.74207015089e-05 0)
(0.000438236287553 1.62164676827e-05 0)
(0.000426672886187 1.50779367405e-05 0)
(0.000415902698187 1.40058146894e-05 0)
(0.000405881873723 1.29994495822e-05 0)
(0.000396566707247 1.20571912234e-05 0)
(0.000387914319738 1.11766836531e-05 0)
(0.000379883156069 1.0355098022e-05 0)
(0.000372433332455 9.58931469489e-06 0)
(0.000365526864368 8.87606300825e-06 0)
(0.000359127800534 8.21202679686e-06 0)
(0.000353202284186 7.59392258794e-06 0)
(0.000347718558628 7.01855670995e-06 0)
(0.000342646930614 6.48286632561e-06 0)
(0.000337959701893 5.98394889118e-06 0)
(0.0003336310766 5.51908355767e-06 0)
(0.000329637049868 5.08574780979e-06 0)
(0.000325955281028 4.68163196487e-06 0)
(0.000322564952972 4.30465424483e-06 0)
(0.000319446617678 3.95297877936e-06 0)
(0.000316582026356 3.62503930921e-06 0)
(0.00031395394126 3.3195713421e-06 0)
(0.000311545924837 3.03565627768e-06 0)
(0.000309342100677 2.77278137754e-06 0)
(0.000307326879842 2.53092058504e-06 0)
(0.000305484646077 2.3106418364e-06 0)
(0.000303799395023 2.11324758774e-06 0)
(0.000302254327735 1.94095497719e-06 0)
(0.000300831411048 1.79711983027e-06 0)
(0.000299510943575 1.68649912453e-06 0)
(0.000298271219342 1.61551969472e-06 0)
(0.000297088485675 1.59244672731e-06 0)
(0.000295937591122 1.62714603135e-06 0)
(0.00029479407317 1.72957950878e-06 0)
(0.000293639002376 1.90456296849e-06 0)
(0.000292467651834 2.13502669926e-06 0)
(0.000291296017005 2.33285426182e-06 0)
(0.00122191584124 0.000221209721479 0)
(0.0012533264519 0.000382694317733 0)
(0.00125089172194 0.000396271752049 0)
(0.00121304422084 0.000356542639842 0)
(0.00115480927571 0.00030483430241 0)
(0.00108859434211 0.000255640169389 0)
(0.00102187720952 0.000213113878871 0)
(0.000958622626152 0.0001776733364 0)
(0.000900659302623 0.000148526610492 0)
(0.000848610151817 0.00012461472887 0)
(0.000802456953489 0.000104940475532 0)
(0.000761866436896 8.86617064025e-05 0)
(0.000726372087084 7.50982701158e-05 0)
(0.000695471947121 6.37110273936e-05 0)
(0.000668678691279 5.40752393394e-05 0)
(0.000645543147667 4.58561116402e-05 0)
(0.000625663405364 3.87886081541e-05 0)
(0.000608686361193 3.26615535332e-05 0)
(0.000594305525187 2.73053844721e-05 0)
(0.000582257176209 2.25828000008e-05 0)
(0.000572315984601 1.83816417187e-05 0)
(0.000564290674088 1.46094631585e-05 0)
(0.000558019994359 1.11893704706e-05 0)
(0.000553369112688 8.05681945129e-06 0)
(0.000550226446863 5.15713397659e-06 0)
(0.000548500918466 2.44357209064e-06 0)
(0.000548119585439 -1.24188574417e-07 0)
(0.000549025604572 -2.58123919311e-06 0)
(0.000551176472296 -4.95836755839e-06 0)
(0.000554542496721 -7.28278888731e-06 0)
(0.000559105454469 -9.57870608903e-06 0)
(0.000564857384716 -1.18677226922e-05 0)
(0.000571799475669 -1.41691255108e-05 0)
(0.000579940998477 -1.65000455514e-05 0)
(0.000589298242233 -1.88754996144e-05 0)
(0.000599893401278 -2.13083093948e-05 0)
(0.000611753362594 -2.38088910092e-05 0)
(0.000624908336991 -2.63849042957e-05 0)
(0.000639390273516 -2.90407500325e-05 0)
(0.000655230992839 -3.1776903373e-05 0)
(0.000672459973424 -3.45890761843e-05 0)
(0.000691101725737 -3.74672091055e-05 0)
(0.000711172696707 -4.039430967e-05 0)
(0.000732677661966 -4.33451753866e-05 0)
(0.000755605590337 -4.62850736602e-05 0)
(0.000779925006965 -4.91684915584e-05 0)
(0.000805578941456 -5.19381176134e-05 0)
(0.000832479626517 -5.45242664219e-05 0)
(0.000860503208821 -5.68449964844e-05 0)
(0.000889484839903 -5.88071845457e-05 0)
(0.000919214616719 -6.0308791715e-05 0)
(0.000949434918686 -6.1242472585e-05 0)
(0.000979839716771 -6.15005419452e-05 0)
(0.00101007639047 -6.09811405315e-05 0)
(0.00103975047247 -5.95952703396e-05 0)
(0.00106843355806 -5.72742324321e-05 0)
(0.00109567438951 -5.39769081402e-05 0)
(0.00112101287221 -4.96962444434e-05 0)
(0.00114399649887 -4.44641987746e-05 0)
(0.00116419833179 -3.83542744538e-05 0)
(0.00118123532703 -3.14807497546e-05 0)
(0.00119478544585 -2.39939325848e-05 0)
(0.0012046018238 -1.60713559527e-05 0)
(0.00121052239575 -7.90568138187e-06 0)
(0.001212473879 3.09025904792e-07 0)
(0.00121046986 8.39035128118e-06 0)
(0.00120460375555 1.61775080143e-05 0)
(0.00119503829536 2.35367525028e-05 0)
(0.00118199354484 3.03621517715e-05 0)
(0.00116573523758 3.65728721171e-05 0)
(0.00114656447981 4.21089320157e-05 0)
(0.00112480907492 4.69272143084e-05 0)
(0.00110081611852 5.0998836702e-05 0)
(0.00107494525169 5.43081749114e-05 0)
(0.0010475619941 5.68531984748e-05 0)
(0.00101903080455 5.86464216741e-05 0)
(0.000989707822973 5.97156813604e-05 0)
(0.000959933541468 6.01040849786e-05 0)
(0.000930025857928 5.9868750401e-05 0)
(0.000900274043576 5.9078301184e-05 0)
(0.000870934096766 5.78093881814e-05 0)
(0.000842225791283 5.61427082627e-05 0)
(0.000814331512192 5.41590445018e-05 0)
(0.000787396764569 5.19357785248e-05 0)
(0.00076153208378 4.95441709811e-05 0)
(0.000736815989447 4.70475328017e-05 0)
(0.000713298606264 4.45002603499e-05 0)
(0.000691005606676 4.19476084538e-05 0)
(0.000669942192264 3.9426026081e-05 0)
(0.000650096903549 3.69638732583e-05 0)
(0.000631445118589 3.45823568996e-05 0)
(0.000613952161142 3.22965567991e-05 0)
(0.000597575986516 3.01164480147e-05 0)
(0.000582269447148 2.80478589885e-05 0)
(0.000567982162331 2.60933303042e-05 0)
(0.000554662029538 2.42528591628e-05 0)
(0.000542256420899 2.2524527314e-05 0)
(0.000530713109691 2.09050191956e-05 0)
(0.000519980969896 1.93900409936e-05 0)
(0.0005100104882 1.79746540065e-05 0)
(0.000500754123308 1.6653535386e-05 0)
(0.000492166542548 1.54211792897e-05 0)
(0.000484204761031 1.42720496551e-05 0)
(0.000476828204177 1.32006950296e-05 0)
(0.000469998710463 1.22018338664e-05 0)
(0.000463680487685 1.12704180312e-05 0)
(0.000457840032979 1.04016805481e-05 0)
(0.000452446024191 9.59117333383e-06 0)
(0.000447469187862 8.83479939101e-06 0)
(0.000442882147156 8.12884408239e-06 0)
(0.000438659251293 7.47000926106e-06 0)
(0.000434776386643 6.85545457647e-06 0)
(0.000431210768378 6.28284978705e-06 0)
(0.000427940710802 5.7504427316e-06 0)
(0.000424945374066 5.2571472528e-06 0)
(0.000422204485557 4.80265601597e-06 0)
(0.000419698036201 4.38758203552e-06 0)
(0.000417405956365 4.01363136852e-06 0)
(0.000415307784784 3.68380379723e-06 0)
(0.000413382359671 3.40260727113e-06 0)
(0.000411607588522 3.17624560507e-06 0)
(0.000409960398655 3.01268357237e-06 0)
(0.000408417042353 2.92137013072e-06 0)
(0.000406954032318 2.91212563176e-06 0)
(0.000405550086999 2.99206279549e-06 0)
(0.000404189344534 3.15789366721e-06 0)
(0.000402864706205 3.37768631707e-06 0)
(0.000401573637802 3.55289932369e-06 0)
(0.00121690870081 0.000182385175205 0)
(0.00124897277731 0.000358044162596 0)
(0.00126538701532 0.000406942379148 0)
(0.00125534395948 0.000393762549517 0)
(0.00122462524008 0.000356568036496 0)
(0.00118154663969 0.000313199947938 0)
(0.0011326629591 0.000271154891861 0)
(0.00108235361585 0.000233196228261 0)
(0.00103330939417 0.000200011242048 0)
(0.000987063749867 0.000171424870635 0)
(0.00094440127965 0.000146945980566 0)
(0.000905640251293 0.000126007724642 0)
(0.000870819092927 0.000108067738473 0)
(0.000839816218579 9.26445518928e-05 0)
(0.000812425499628 7.93256683376e-05 0)
(0.000788402899947 6.77638048371e-05 0)
(0.000767494642006 5.76688943389e-05 0)
(0.000749453681072 4.87992518695e-05 0)
(0.000734048859753 4.09533232032e-05 0)
(0.00072106953858 3.39625115384e-05 0)
(0.000710327477935 2.768516298e-05 0)
(0.000701657091307 2.20016200753e-05 0)
(0.000694914771185 1.68101950004e-05 0)
(0.000689977722192 1.20239078173e-05 0)
(0.000686742566588 7.56784999056e-06 0)
(0.000685123879685 3.37705514977e-06 0)
(0.000685052744469 -6.05218689619e-07 0)
(0.000686475369707 -4.42886769271e-06 0)
(0.000689351789022 -8.13803914504e-06 0)
(0.000693654644466 -1.17720088653e-05 0)
(0.000699368042052 -1.53658516086e-05 0)
(0.000706486456089 -1.89509298926e-05 0)
(0.000715013655532 -2.25552151957e-05 0)
(0.000724961619553 -2.6203446997e-05 0)
(0.000736349404151 -2.99171283714e-05 0)
(0.000749201916235 -3.37143508778e-05 0)
(0.000763548546175 -3.76094368449e-05 0)
(0.000779421604286 -4.16123836572e-05 0)
(0.000796854501625 -4.57280935088e-05 0)
(0.000815879611285 -4.99553737879e-05 0)
(0.000836525744329 -5.4285699889e-05 0)
(0.000858815176004 -5.87017451249e-05 0)
(0.000882760165209 -6.31757044868e-05 0)
(0.000908358925993 -6.76674719226e-05 0)
(0.000935591037771 -7.21227770057e-05 0)
(0.000964412324578 -7.64714456482e-05 0)
(0.00099474929671 -8.06260183485e-05 0)
(0.00102649333262 -8.44810290961e-05 0)
(0.00105949488375 -8.7913304082e-05 0)
(0.00109355810326 -9.07836590712e-05 0)
(0.00112843641628 -9.29403337071e-05 0)
(0.00116382964106 -9.42243798019e-05 0)
(0.00119938330768 -9.44770185276e-05 0)
(0.00123469077815 -9.3548724963e-05 0)
(0.00126929863791 -9.13095436046e-05 0)
(0.00130271561796 -8.76599415338e-05 0)
(0.0013344250543 -8.25413862443e-05 0)
(0.00136390062428 -7.59457433271e-05 0)
(0.00139062481466 -6.79224484318e-05 0)
(0.00141410923041 -5.85822145005e-05 0)
(0.00143391542712 -4.80959544416e-05 0)
(0.00144967451398 -3.66879001182e-05 0)
(0.00146110350639 -2.462274067e-05 0)
(0.00146801649928 -1.21878599335e-05 0)
(0.00147032928777 3.26917067113e-07 0)
(0.00146805705741 1.26486764141e-05 0)
(0.00146130603707 2.45362575814e-05 0)
(0.00145026113982 3.57882941561e-05 0)
(0.00143517210375 4.62443157468e-05 0)
(0.00141634028122 5.57807440826e-05 0)
(0.00139410725979 6.43047346871e-05 0)
(0.00136884545753 7.17485058049e-05 0)
(0.00134095013802 7.8065702032e-05 0)
(0.00131083204219 8.32301493173e-05 0)
(0.00127890993757 8.72364615672e-05 0)
(0.00124560269231 9.01014687851e-05 0)
(0.00121132085995 9.18653253606e-05 0)
(0.0011764581082 9.25913546543e-05 0)
(0.00114138306251 9.2364094811e-05 0)
(0.00110643221408 9.12855097789e-05 0)
(0.00107190445723 8.94697795146e-05 0)
(0.00103805761182 8.70373705478e-05 0)
(0.00100510702266 8.4109159866e-05 0)
(0.000973226081733 8.08012677876e-05 0)
(0.000942548342074 7.72210247796e-05 0)
(0.000913170802154 7.34642421619e-05 0)
(0.000885157929026 6.96137421731e-05 0)
(0.000858546033937 6.57389617686e-05 0)
(0.00083334768936 6.18963774027e-05 0)
(0.000809555960246 5.81304901831e-05 0)
(0.000787148300406 5.44751395541e-05 0)
(0.000766090030106 5.09549606361e-05 0)
(0.000746337360829 4.75868504146e-05 0)
(0.000727839968578 4.43813537829e-05 0)
(0.000710543140198 4.13439171997e-05 0)
(0.000694389530774 3.84759856e-05 0)
(0.000679320576661 3.5775937101e-05 0)
(0.00066527761036 3.32398625062e-05 0)
(0.000652202721937 3.08622033918e-05 0)
(0.000640039408313 2.86362661266e-05 0)
(0.000628733047344 2.655462986e-05 0)
(0.000618231228888 2.46094661465e-05 0)
(0.000608483970314 2.27927862497e-05 0)
(0.000599443839473 2.10966306112e-05 0)
(0.000591066004061 1.95132129063e-05 0)
(0.000583308222662 1.80350295795e-05 0)
(0.000576130789609 1.66549439998e-05 0)
(0.000569496442975 1.53662532995e-05 0)
(0.000563370242689 1.41627447224e-05 0)
(0.000557719423708 1.30387477512e-05 0)
(0.000552513227521 1.19891875353e-05 0)
(0.000547722713914 1.10096449961e-05 0)
(0.000543320553945 1.00964285477e-05 0)
(0.0005392808046 9.24666233037e-06 0)
(0.00053557866571 8.45839520092e-06 0)
(0.000532190220808 7.73073388568e-06 0)
(0.00052909216604 7.06400120422e-06 0)
(0.000526261535851 6.45991568715e-06 0)
(0.000523675441856 5.92177913147e-06 0)
(0.000521310853592 5.45464010416e-06 0)
(0.000519144468295 5.06536485171e-06 0)
(0.000517152742629 4.76247649235e-06 0)
(0.000515312190135 4.55548379756e-06 0)
(0.000513600068201 4.45314298956e-06 0)
(0.00051199552082 4.45953844476e-06 0)
(0.000510480866327 4.56581622684e-06 0)
(0.000509041260951 4.73400914203e-06 0)
(0.000507657661014 4.87124636083e-06 0)
(0.00121281425671 0.000152662212616 0)
(0.00124158109516 0.000326936194024 0)
(0.00126545491555 0.000397762267212 0)
(0.00127151375289 0.000406926857792 0)
(0.00126002239762 0.000385613780141 0)
(0.00123562607685 0.00035162910213 0)
(0.0012031644662 0.000314071005296 0)
(0.00116647227268 0.000277281627882 0)
(0.0011282863602 0.000243155952839 0)
(0.00109044819915 0.000212363941456 0)
(0.00105413756072 0.000184979994665 0)
(0.00102006780156 0.000160804474382 0)
(0.000988633151043 0.000139526774001 0)
(0.000960014865331 0.0001208066529 0)
(0.000934255876942 0.000104313251265 0)
(0.000911312455372 8.97422199063e-05 0)
(0.000891089507501 7.68216620123e-05 0)
(0.000873464407127 6.5312522656e-05 0)
(0.000858302862192 5.50063960851e-05 0)
(0.000845469297861 4.57223018769e-05 0)
(0.000834833488332 3.73032208842e-05 0)
(0.000826274640681 2.961277492e-05 0)
(0.000819683761895 2.25322179961e-05 0)
(0.000814964880278 1.59577948911e-05 0)
(0.000812035511694 9.79846716816e-06 0)
(0.000810826635478 3.97398184511e-06 0)
(0.000811282357774 -1.58675092245e-06 0)
(0.000813359376047 -6.94699652602e-06 0)
(0.000817026320154 -1.21632902575e-05 0)
(0.000822263017829 -1.72863262187e-05 0)
(0.000829059703345 -2.23616313585e-05 0)
(0.000837416172443 -2.74300457477e-05 0)
(0.000847340876747 -3.25280138131e-05 0)
(0.000858849939988 -3.76876843882e-05 0)
(0.000871966069326 -4.29368114182e-05 0)
(0.000886717326908 -4.82984414669e-05 0)
(0.000903135719321 -5.379036973e-05 0)
(0.000921255555543 -5.94243430356e-05 0)
(0.000941111517609 -6.52049879134e-05 0)
(0.000962736383072 -7.11284449513e-05 0)
(0.000986158335161 -7.71806999802e-05 0)
(0.00101139779694 -8.33356199002e-05 0)
(0.0010384637316 -8.95527299111e-05 0)
(0.00106734936525 -9.57748118363e-05 0)
(0.00109802731456 -0.000101925463382 0)
(0.00113044414435 -0.00010790683511 0)
(0.001164514443 -0.000113597852835 0)
(0.00120011459213 -0.000118853326688 0)
(0.00123707651918 -0.000123504425659 0)
(0.00127518185454 -0.000127361027527 0)
(0.00131415705137 -0.000130216404816 0)
(0.00135367013991 -0.000131854546835 0)
(0.00139332984247 -0.000132060141377 0)
(0.00143268773477 -0.000130630882524 0)
(0.00147124398836 -0.000127391415288 0)
(0.00150845698693 -0.000122207964298 0)
(0.00154375682892 -0.000115002559548 0)
(0.00157656245784 -0.000105765690892 0)
(0.00160630189014 -9.45660522614e-05 0)
(0.00163243465903 -8.15557333399e-05 0)
(0.00165447509156 -6.69690147086e-05 0)
(0.0016720144572 -5.11132563053e-05 0)
(0.00168473961184 -3.43515113839e-05 0)
(0.00169244578712 -1.70782544688e-05 0)
(0.00169504177858 3.08516589686e-07 0)
(0.00169254696688 1.74340857674e-05 0)
(0.00168508121393 3.39675706972e-05 0)
(0.00167285018859 4.9632836216e-05 0)
(0.00165612933677 6.42095791975e-05 0)
(0.00163524915638 7.75273882784e-05 0)
(0.00161058306774 8.94570947663e-05 0)
(0.00158253779972 9.99031021281e-05 0)
(0.00155154539936 0.000108798706046 0)
(0.00151805577301 0.000116104744574 0)
(0.00148252888384 0.000121810735881 0)
(0.00144542615258 0.000125937047295 0)
(0.00140720108539 0.000128536524884 0)
(0.00136828957337 0.000129694300992 0)
(0.00132910058721 0.000129525067201 0)
(0.00129000807227 0.000128167793306 0)
(0.00125134472835 0.000125778495634 0)
(0.00121339808682 0.000122522046948 0)
(0.00117640896911 0.000118564102789 0)
(0.00114057211593 0.00011406403825 0)
(0.00110603857726 0.000109169458564 0)
(0.0010729193647 0.000104012493129 0)
(0.00104128987339 9.87077938967e-05 0)
(0.00101119464703 9.33519753073e-05 0)
(0.000982652153731 8.80241506773e-05 0)
(0.000955659337871 8.27872155044e-05 0)
(0.000930195799426 7.76895703865e-05 0)
(0.00090622752111 7.27670401218e-05 0)
(0.000883710114411 6.80448120491e-05 0)
(0.000862591590504 6.35392765366e-05 0)