/*--------------------------------*- C++ -*----------------------------------*\
  =========                 |
  \\      /  F ield         | OpenFOAM: The Open Source CFD Toolbox
   \\    /   O peration     | Website:  https://openfoam.org
    \\  /    A nd           | Version:  7
     \\/     M anipulation  |
\*---------------------------------------------------------------------------*/
FoamFile
{
    version     2.0;
    format      ascii;
    class       volScalarField;
    location    "2760";
    object      p;
}
// * * * * * * * * * * * * * * * * * * * * * * * * * * * * * * * * * * * * * //

dimensions      [0 2 -2 0 0 0 0];

internalField   nonuniform List<scalar> 
8192
(
0.000568572829179
0.000397020315229
0.000311397336022
0.000267274437815
0.000242239612061
0.000226992942206
0.000217116718138
0.000210366454344
0.000205535244906
0.000201939008764
0.000199170317676
0.000196975182949
0.000195188656098
0.000193699712642
0.000192431296129
0.000191328518901
0.000190351420268
0.000189470365528
0.000188663029135
0.000187912359354
0.000187205169438
0.000186531139649
0.000185882095371
0.000185251474664
0.000184633928238
0.000184025013263
0.000183420954388
0.000182818453028
0.000182214531264
0.000181606399804
0.000180991342772
0.000180366613346
0.000179729334787
0.000179076402653
0.000178404384726
0.000177709415574
0.000176987083202
0.000176232305697
0.000175439196532
0.000174600918096
0.000173709524481
0.000172755796448
0.000171729074234
0.000170617097409
0.000169405865521
0.000168079538655
0.000166620403055
0.000165008932834
0.000163223983573
0.000161243155519
0.000159043361275
0.000156601623312
0.000153896108794
0.000150907383112
0.000147619830473
0.000144023153813
0.000140113831533
0.000135896381214
0.000131384265707
0.000126600282566
0.000121576310678
0.000116352355664
0.000110974935158
0.000105494960436
9.99653680719e-05
9.44387991394e-05
8.89655954873e-05
8.35922805047e-05
7.83605608441e-05
7.33067852619e-05
6.84617301406e-05
6.38505706424e-05
5.94929280769e-05
5.54029368467e-05
5.15893267732e-05
4.80555553262e-05
4.4800040397e-05
4.18165377091e-05
3.90946820686e-05
3.66206790178e-05
3.43781032374e-05
3.23487413176e-05
3.05134122216e-05
2.8852707899e-05
2.73476138758e-05
2.59799899009e-05
2.47329089517e-05
2.35908665578e-05
2.25398805958e-05
2.15675050307e-05
2.0662780811e-05
1.98161445434e-05
1.90193119863e-05
1.82651494778e-05
1.75475428872e-05
1.68612705693e-05
1.62018844472e-05
1.55656014528e-05
1.49492063206e-05
1.43499657616e-05
1.37655535508e-05
1.31939856437e-05
1.26335643495e-05
1.20828304455e-05
1.15405222149e-05
1.10055403653e-05
1.04769179529e-05
9.95379445117e-06
9.43539329447e-06
8.92100225564e-06
8.40995622593e-06
7.90162202959e-06
7.39538517335e-06
6.89063860697e-06
6.38677402639e-06
5.88317675688e-06
5.37922626626e-06
4.87430584155e-06
4.36782770105e-06
3.85928445671e-06
3.34834653823e-06
2.83504153401e-06
2.32008408003e-06
1.80549301411e-06
1.29578653459e-06
8.00428474513e-07
3.39841590254e-07
1.58408690366e-08
0.000419661926557
0.000356145224817
0.000306450471687
0.000273791735275
0.000251862119694
0.000236671936454
0.000225842979502
0.000217910723348
0.000211950156497
0.000207363036365
0.000203753368594
0.000200852988168
0.00019847625799
0.000196491976096
0.000194805613841
0.00019334785896
0.000192067074362
0.000190924233839
0.000189889454167
0.000188939575511
0.000188056442954
0.000187225665215
0.000186435703616
0.000185677193053
0.000184942428232
0.000184224968948
0.000183519331915
0.00018282074582
0.000182124952744
0.000181428042687
0.00018072631243
0.000180016141637
0.00017929387955
0.000178555737751
0.000177797685208
0.00017701534248
0.000176203872616
0.000175357866901
0.000174471224438
0.000173537025459
0.000172547399622
0.000171493392244
0.000170364833711
0.000169150220213
0.000167836617568
0.000166409604068
0.000164853272836
0.000163150318551
0.000161282236688
0.000159229664456
0.000156972889748
0.000154492546291
0.000151770498374
0.000148790897316
0.000145541365193
0.000142014232584
0.000138207729878
0.000134127010721
0.000129784875445
0.000125202067105
0.00012040703879
0.000115435144256
0.000110327283926
0.000105128132543
9.98841558028e-05
9.46416595448e-05
8.94450964775e-05
8.43357675922e-05
7.93509455483e-05
7.45233714522e-05
6.98810209113e-05
6.54470277345e-05
6.1239680088e-05
5.72724456106e-05
5.35540228984e-05
5.00884465817e-05
4.68752854031e-05
4.39099668904e-05
4.11842419262e-05
3.86867760946e-05
3.64038305145e-05
3.43199801421e-05
3.2418814559e-05
3.0683574027e-05
2.90976878122e-05
2.76451981335e-05
2.63110677036e-05
2.50813797987e-05
2.39434464202e-05
2.28858429676e-05
2.18983878376e-05
2.09720835683e-05
2.00990334757e-05
1.92723447781e-05
1.8486026453e-05
1.77348876416e-05
1.70144404927e-05
1.63208097898e-05
1.56506506248e-05
1.50010745452e-05
1.43695841109e-05
1.37540154064e-05
1.31524879037e-05
1.25633609235e-05
1.19851959652e-05
1.14167241402e-05
1.08568180464e-05
1.03044674368e-05
9.75875817049e-06
9.21885398334e-06
8.6839807788e-06
8.15341323454e-06
7.62646375061e-06
7.10247396661e-06
6.58080947501e-06
6.06085882984e-06
5.54203877519e-06
5.02380877005e-06
4.50569979718e-06
3.98736535568e-06
3.46866732491e-06
2.94981709446e-06
2.4316053112e-06
1.91577604357e-06
1.40564095512e-06
9.07131098352e-07
4.30186775366e-07
5.56300551506e-08
0.00033672169026
0.000314049983783
0.000288052394289
0.000266809433416
0.000250683791851
0.000238366865376
0.000228839557165
0.000221374501396
0.000215449862933
0.000210686563619
0.000206806388457
0.000203603349834
0.000200923652238
0.000198651486408
0.000196698882629
0.00019499842413
0.000193497985571
0.000192156909437
0.000190943206795
0.000189831490998
0.000188801438833
0.000187836633697
0.000186923687519
0.000186051567531
0.000185211074695
0.000184394435062
0.000183594975708
0.000182806864138
0.000182024895629
0.000181244315236
0.00018046066673
0.000179669661488
0.000178867060312
0.000178048564055
0.000177209709405
0.000176345766822
0.000175451638355
0.000174521753653
0.000173549963251
0.000172529429059
0.000171452513121
0.000170310667127
0.000169094327025
0.000167792819451
0.000166394289605
0.000164885663605
0.000163252662116
0.000161479885797
0.000159550996015
0.000157449015587
0.000155156772322
0.00015265750178
0.000149935613402
0.000146977606088
0.000143773096102
0.000140315895085
0.000136605051948
0.000132645753907
0.000128449971204
0.000124036731473
0.00011943192808
0.000114667610418
0.000109780775771
0.00010481177309
9.98025111274e-05
9.47947007437e-05
8.98283492055e-05
8.4940629943e-05
8.01651386189e-05
7.55314825138e-05
7.1065097974e-05
6.67871899427e-05
6.27147183346e-05
5.88603973001e-05
5.52327112289e-05
5.18359778799e-05
4.86704987919e-05
4.57328300988e-05
4.30161862758e-05
4.05109634663e-05
3.82053461037e-05
3.60859474258e-05
3.41384329609e-05
3.23480845356e-05
3.07002763087e-05
2.91808494888e-05
2.7776385344e-05
2.64743853235e-05
2.52633723773e-05
2.41329294938e-05
2.30736911426e-05
2.20773015426e-05
2.11363513615e-05
2.02443019443e-05
1.93954039388e-05
1.85846151829e-05
1.78075212038e-05
1.70602603926e-05
1.63394550776e-05
1.56421489951e-05
1.4965751277e-05
1.4307986706e-05
1.36668518764e-05
1.30405767291e-05
1.24275909583e-05
1.18264947148e-05
1.12360331302e-05
1.0655074162e-05
1.00825893913e-05
9.51763741373e-06
8.95934962173e-06
8.4069182214e-06
7.85958653439e-06
7.31664175076e-06
6.77741060605e-06
6.24125872327e-06
5.7075948795e-06
5.17588203508e-06
4.64565792103e-06
4.11656919577e-06
3.5884250714e-06
3.06127895559e-06
2.53555084716e-06
2.01220921225e-06
1.49303767618e-06
9.80957354061e-07
4.79798297738e-07
6.65535866827e-08
0.000292182480396
0.000283786160328
0.0002695847021
0.000255783360521
0.000244346301982
0.000235063163001
0.000227481582959
0.000221233593119
0.000216041228282
0.000211692005392
0.000208020174224
0.000204894630146
0.00020221085651
0.000199885163378
0.000197850333752
0.000196052230584
0.000194447117375
0.00019299953347
0.000191680608247
0.000190466723655
0.000189338452675
0.00018827971552
0.000187277107163
0.000186319359374
0.0001853969082
0.000184501544025
0.000183626126246
0.0001827643484
0.00018191054282
0.000181059514121
0.000180206396777
0.000179346531144
0.00017847535136
0.000177588282169
0.000176680641526
0.000175747546405
0.000174783819792
0.000173783897354
0.00017274173287
0.000171650702196
0.000170503506439
0.000169292076132
0.000168007479746
0.000166639841803
0.000165178278343
0.000163610860549
0.000161924620804
0.000160105619231
0.000158139092108
0.000156009705727
0.000153701938783
0.000151200611724
0.000148491571192
0.000145562521031
0.000142403969285
0.000139010235853
0.000135380441824
0.000131519382509
0.000127438173698
0.000123154556978
0.000118692760578
0.000114082848559
0.000109359562574
0.000104560760862
9.97256568963e-05
9.48931050214e-05
9.01001750062e-05
8.53811377465e-05
8.07668498034e-05
7.62844649874e-05
7.19573465699e-05
6.78050628198e-05
6.38433912396e-05
6.00843044214e-05
5.65359509309e-05
5.32026714295e-05
5.00850991141e-05
4.71803838817e-05
4.4482555404e-05
4.1983010687e-05
3.9671086601e-05
3.7534664635e-05
3.55607553027e-05
3.3736020381e-05
3.20472069455e-05
3.0481483086e-05
2.90266778182e-05
2.76714359496e-05
2.64053026872e-05
2.52187536713e-05
2.41031850092e-05
2.30508757652e-05
2.20549329199e-05
2.11092264616e-05
2.02083202265e-05
1.93474024175e-05
1.85222184315e-05
1.77290076218e-05
1.69644449167e-05
1.62255876879e-05
1.55098279347e-05
1.48148495991e-05
1.41385907147e-05
1.34792099869e-05
1.28350573995e-05
1.22046484135e-05
1.15866413697e-05
1.09798177158e-05
1.03830647488e-05
9.79536059221e-06
9.2157612159e-06
8.64338935422e-06
8.0774252895e-06
7.51709955009e-06
6.96168772685e-06
6.41050775801e-06
5.86292027636e-06
5.3183328914e-06
4.77620972568e-06
4.23608813416e-06
3.6976055414e-06
3.16054086624e-06
2.62487718427e-06
2.09089327285e-06
1.55927732335e-06
1.03114772218e-06
5.07347941804e-07
6.83252517282e-08
0.000264580796095
0.000262598148948
0.000254784977221
0.000245579598206
0.000237287282235
0.000230245620606
0.000224297789334
0.000219238561042
0.00021489963257
0.000211151325116
0.000207892348494
0.000205041424087
0.000202531900525
0.000200308383995
0.000198324510203
0.000196541341662
0.000194926124314
0.000193451273814
0.000192093527772
0.000190833229768
0.000189653723564
0.000188540841254
0.000187482471698
0.000186468197155
0.000185488987415
0.000184536941939
0.000183605071799
0.000182687114403
0.000181777374871
0.000180870586974
0.00017996179221
0.000179046233179
0.00017811925561
0.000177176217518
0.000176212403117
0.000175222939446
0.000174202714057
0.000173146292436
0.000172047834254
0.000170901008015
0.000169698904355
0.000168433949101
0.000167097818431
0.000165681360114
0.000164174527037
0.000162566332052
0.000160844836722
0.000158997190627
0.000157009742046
0.000154868244287
0.000152558183185
0.000150065248503
0.000147375963123
0.000144478467859
0.000141363436985
0.000138025073375
0.000134462106844
0.000130678698881
0.000126685141929
0.000122498231718
0.000118141192175
0.000113643060763
0.000109037516936
0.000104361257309
9.9652148181e-05
9.49474461656e-05
9.02823788508e-05
8.56892152906e-05
8.11967818093e-05
7.68303189876e-05
7.26115164175e-05
6.85585862146e-05
6.46862973551e-05
6.10059509927e-05
5.75253225699e-05
5.42486256033e-05
5.11765606427e-05
4.83064996106e-05
4.56328251396e-05
4.3147408003e-05
4.08401760643e-05
3.86997140151e-05
3.67138357258e-05
3.48700855686e-05
3.31561443249e-05
3.15601331677e-05
3.0070822264e-05
2.86777580244e-05
2.73713258308e-05
2.61427647053e-05
2.49841483093e-05
2.3888343912e-05
2.28489582446e-05
2.18602767367e-05
2.09172006898e-05
2.00151854144e-05
1.91501812574e-05
1.83185786186e-05
1.75171575184e-05
1.67430418761e-05
1.59936584324e-05
1.5266700077e-05
1.45600932747e-05
1.38719692212e-05
1.32006383681e-05
1.25445679446e-05
1.19023621431e-05
1.1272744649e-05
1.06545432422e-05
1.00466762234e-05
9.44814047255e-06
8.85800097459e-06
8.27538171495e-06
7.69945788515e-06
7.12944942569e-06
6.56461600772e-06
6.00425369842e-06
5.44769373166e-06
4.89430412293e-06
4.34349533299e-06
3.79473191914e-06
3.24755295065e-06
2.70160397235e-06
2.15667771123e-06
1.61273076101e-06
1.06972548957e-06
5.26834396131e-07
6.86348746528e-08
0.000246250795231
0.000247127098523
0.00024306742789
0.000236918452851
0.00023081184456
0.000225369294224
0.000220641192498
0.000216532484084
0.000212936419857
0.000209764376277
0.000206946873267
0.000204429019454
0.000202166314825
0.000200121752453
0.000198263969115
0.000196566063758
0.000195004803984
0.000193560051181
0.000192214311034
0.000190952360918
0.000189760929738
0.000188628417834
0.000187544650221
0.000186500658907
0.000185488490997
0.000184501039669
0.000183531895271
0.000182575214295
0.000181625602655
0.00018067800998
0.000179727635548
0.000178769843628
0.0001778000836
0.000176813814611
0.000175806433101
0.000174773201717
0.000173709178304
0.000172609143845
0.000171467528431
0.000170278334654
0.000169035058259
0.000167730606527
0.00016635721582
0.000164906371123
0.000163368732383
0.000161734075251
0.000159991257457
0.000158128226653
0.000156132090754
0.000153989276822
0.000151685807872
0.000149207726326
0.00014654168542
0.000143675713812
0.000140600134015
0.000137308585866
0.00013379907808
0.000130074968708
0.000126145758106
0.00012202756155
0.000117743116388
0.000113321194426
0.000108795369432
0.000104202242434
9.95794019889e-05
9.49634827671e-05
9.03886932805e-05
8.5885957803e-05
8.14825823332e-05
7.72022892273e-05
7.3065402878e-05
6.90890176528e-05
6.52870667292e-05
6.16702819395e-05
5.82460866782e-05
5.50184963741e-05
5.19881100534e-05
4.91522584046e-05
4.6505333723e-05
4.40392801666e-05
4.17441861124e-05
3.96089050072e-05
3.76216372875e-05
3.57704262643e-05
3.40435452363e-05
3.2429773982e-05
3.09185765351e-05
2.95001988205e-05
2.81657059836e-05
2.69069773737e-05
2.57166738332e-05
2.45881884477e-05
2.35155887624e-05
2.24935559477e-05
2.15173244719e-05
2.0582624469e-05
1.96856280205e-05
1.88228999324e-05
1.79913531692e-05
1.7188208845e-05
1.64109605215e-05
1.56573424772e-05
1.49253015819e-05
1.42129723994e-05
1.35186551568e-05
1.28407962384e-05
1.21779708913e-05
1.15288678564e-05
1.08922756727e-05
1.02670704253e-05
9.65220474288e-06
9.0466978722e-06
8.44962669288e-06
7.86011756324e-06
7.27733893889e-06
6.70049476099e-06
6.12881871316e-06
5.56156958575e-06
4.99802821336e-06
4.43749673281e-06
3.87930115735e-06
3.32279792779e-06
2.7673823994e-06
2.21248643321e-06
1.65751740556e-06
1.10160005595e-06
5.4284145731e-07
6.92497869739e-08
0.000233386904595
0.000235488025517
0.00023367020605
0.000229636031984
0.000225135204234
0.000220884253572
0.000217072352629
0.000213693790813
0.000210691142405
0.000208003942794
0.000205581154716
0.000203381975656
0.000201373786768
0.00019952998387
0.000197828331591
0.000196249841618
0.000194778033436
0.000193398442688
0.000192098280673
0.000190866183754
0.000189692016374
0.000188566707133
0.000187482106673
0.000186430861303
0.000185406299034
0.00018440232606
0.000183413332358
0.000182434106268
0.000181459754298
0.000180485626391
0.000179507247728
0.00017852025559
0.000177520337756
0.000176503172931
0.000175464372074
0.000174399419576
0.000173303613245
0.000172172002104
0.000170999321067
0.00016977992169
0.000168507698445
0.00016717601038
0.000165777598726
0.000164304502178
0.000162747973342
0.000161098402515
0.000159345258813
0.000157477063792
0.000155481419103
0.000153345116652
0.000151054365608
0.000148595172556
0.000145953905521
0.000143118056181
0.000140077186885
0.000136824014701
0.000133355552196
0.000129674200955
0.000125788675901
0.000121714614825
0.000117474696295
0.000113098083036
0.000108619088724
0.000104075165049
9.95045543542e-05
9.49440831127e-05
9.04275827409e-05
8.59851064435e-05
8.16427856158e-05
7.74230905968e-05
7.33452021342e-05
6.94252889737e-05
6.56766104615e-05
6.21094494076e-05
5.8730938082e-05
5.55448772069e-05
5.25516582868e-05
4.97483753245e-05
4.71291584623e-05
4.46857001056e-05
4.24078976956e-05
4.02845206514e-05
3.83038209637e-05
3.64540356677e-05
3.47237609692e-05
3.3102202558e-05
3.15793211813e-05
3.01458979301e-05
2.87935429524e-05
2.75146674631e-05
2.63024341823e-05
2.51506969081e-05
2.4053936346e-05
2.3007196644e-05
2.20060252132e-05
2.10464171678e-05
2.01247649205e-05
1.92378129851e-05
1.83826177591e-05
1.75565119111e-05
1.67570729369e-05
1.59820954285e-05
1.52295666199e-05
1.44976447983e-05
1.37846402066e-05
1.30889980988e-05
1.24092836477e-05
1.17441684346e-05
1.10924182824e-05
1.0452882218e-05
9.82448237525e-06
9.20620466723e-06
8.5970900824e-06
7.99622647931e-06
7.40274078791e-06
6.81579156678e-06
6.23456192781e-06
5.65825291699e-06
5.08607751725e-06
4.51725542424e-06
3.9510083724e-06
3.38655428543e-06
2.8230938831e-06
2.25977069376e-06
1.69555498076e-06
1.12894589602e-06
5.57348334097e-07
7.10453596291e-08
0.000223943091274
0.000226506358506
0.000226035746219
0.00022348367023
0.000220198762408
0.000216875418788
0.000213778743034
0.000210970854066
0.000208437319771
0.000206142514293
0.000204050033679
0.000202128604488
0.000200352717275
0.000198701700262
0.000197158577022
0.000195709112547
0.000194341111721
0.000193043929735
0.000191808135555
0.000190625278076
0.0001894877184
0.000188388503811
0.000187321267905
0.000186280147325
0.000185259709379
0.000184254887118
0.00018326091982
0.00018227329926
0.000181287715758
0.000180300007387
0.000179306112912
0.000178302026439
0.000177283751645
0.000176247256145
0.000175188425201
0.000174103013959
0.000172986597348
0.000171834516684
0.000170641821995
0.000169403209048
0.000168112950134
0.000166764817862
0.00016535200167
0.00016386701762
0.000162301613602
0.000160646674585
0.00015889213651
0.000157026923153
0.000155038927985
0.00015291507225
0.000150641479474
0.000148203812106
0.000145587812911
0.000142780077033
0.000139769048571
0.000136546193679
0.000133107263391
0.000129453535019
0.000125592905758
0.000121540682528
0.000117319853658
0.000112960583419
0.000108498743868
0.000103973562048
9.942482421e-05
9.48902807023e-05
9.04039045961e-05
8.59952061629e-05
8.16893484517e-05
7.75077044348e-05
7.34684577252e-05
6.95870039435e-05
6.58760813784e-05
6.23456588833e-05
5.90026695138e-05
5.58507215938e-05
5.28899332338e-05
5.01170043355e-05
4.75255675022e-05
4.51067758837e-05
4.2850026238e-05
4.0743698176e-05
3.87758115674e-05
3.69345450576e-05
3.5208599773e-05
3.35874218187e-05
3.20613120882e-05
3.06214552691e-05
2.92598963691e-05
2.79694868108e-05
2.67438156417e-05
2.55771359992e-05
2.44642929075e-05
2.34006557272e-05
2.23820567775e-05
2.14047365899e-05
2.04652956257e-05
1.95606519883e-05
1.8688004519e-05
1.78448006342e-05
1.70287082849e-05
1.62375914707e-05
1.54694887951e-05
1.47225946175e-05
1.3995242408e-05
1.32858899673e-05
1.25931062154e-05
1.19155592921e-05
1.12520057436e-05
1.06012805955e-05
9.96228813277e-06
9.33399322657e-06
8.71541306345e-06
8.10560914661e-06
7.50367945736e-06
6.90875067843e-06
6.31997039345e-06
5.73649915748e-06
5.15750223468e-06
4.58214046466e-06
4.00955880868e-06
3.43886882272e-06
2.86911586454e-06
2.29920993817e-06
1.72777667168e-06
1.15285661399e-06
5.71391802393e-07
7.45260243457e-08
0.000216752420396
0.000219424546114
0.000219762738536
0.000218253569462
0.000215900332887
0.000213318338249
0.000210800180301
0.000208453097686
0.000206297788123
0.000204321201627
0.000202500565242
0.000200812927624
0.000199238237636
0.000197759822664
0.00019636397392
0.00019503933332
0.000193776331424
0.000192566742559
0.000191403354824
0.000190279732304
0.000189190044901
0.000188128945308
0.000187091477842
0.000186073008376
0.000185069168102
0.000184075806284
0.000183088948762
0.000182104762522
0.000181119517942
0.000180129553339
0.000179131243252
0.000178120965847
0.000177095069281
0.000176049837076
0.000174981451872
0.000173885956826
0.000172759213843
0.000171596857656
0.000170394244685
0.000169146395393
0.000167847928809
0.000166492987833
0.000165075154128
0.000163587351968
0.000162021741603
0.000160369605037
0.00015862123103
0.000156765812427
0.000154791378008
0.00015268479282
0.000150431873946
0.000148017678784
0.00014542702364
0.000142645273846
0.000139659408653
0.000136459311331
0.0001330391867
0.000129398984421
0.00012554570083
0.000121494401276
0.000117268708832
0.000112900393767
0.000108427743314
0.00010389274388
9.93376520881e-05
9.48018516046e-05
9.03198879079e-05
8.59209289801e-05
8.1629248483e-05
7.74651779184e-05
7.34459884374e-05
6.95864265058e-05
6.58988604874e-05
6.2393098741e-05
5.90759967789e-05
5.59510240795e-05
5.30179842775e-05
5.0273041158e-05
4.77091030183e-05
4.53165039595e-05
4.30838429088e-05
4.09988245621e-05
3.90489817261e-05
3.72222168987e-05
3.55071547228e-05
3.38933317684e-05
3.23712645961e-05
3.09324370679e-05
2.95692405157e-05
2.82748909747e-05
2.7043339209e-05
2.58691827556e-05
2.47475847699e-05
2.36742016519e-05
2.26451198169e-05
2.16568011132e-05
2.07060360114e-05
1.97899035611e-05
1.89057371364e-05
1.80510950737e-05
1.72237354151e-05
1.64215940838e-05
1.5642765919e-05
1.48854880889e-05
1.41481254799e-05
1.34291577197e-05
1.27271675479e-05
1.20408302893e-05
1.13689042164e-05
1.07102216178e-05
1.00636804037e-05
9.42823610043e-06
8.80289409153e-06
8.18670196899e-06
7.57874185582e-06
6.97812254307e-06
6.38397123453e-06
5.79542457681e-06
5.21161838173e-06
4.63167485879e-06
4.05468489665e-06
3.47968026242e-06
2.9055852352e-06
2.33112740294e-06
1.75467280802e-06
1.17394019671e-06
5.8557577446e-07
8.0024417863e-08
0.000211117105057
0.000213738829468
0.000214558700913
0.000213784066008
0.00021214690268
0.000210164596108
0.000208125362826
0.000206161456294
0.0002043196018
0.000202606091593
0.00020101087188
0.000199518991821
0.000198115465127
0.000196786994857
0.000195522325231
0.000194312061607
0.00019314833491
0.000192024464654
0.000190934673507
0.000189873863204
0.000188837445215
0.000187821215007
0.000186821258927
0.000185833884569
0.000184855567582
0.000183882909744
0.000182912604604
0.000181941409966
0.000180966119206
0.000179983533659
0.000178990440649
0.000177983589028
0.000176959663823
0.000175915259469
0.000174846851004
0.000173750762484
0.000172623131763
0.000171459870623
0.000170256618991
0.000169008691761
0.000167711016443
0.000166358059612
0.000164943740031
0.000163461326483
0.000161903319155
0.000160261315343
0.000158525864043
0.00015668632064
0.000154730723368
0.000152645727994
0.000150416654952
0.00014802771969
0.000145462523426
0.000142704866161
0.000139739898221
0.000136555557615
0.000133144177149
0.000129504123202
0.000125641344237
0.000121570687218
0.000117316694735
0.000112913370226
0.000108402372143
0.000103829570236
9.92407295793e-05
9.46776034516e-05
9.01756712587e-05
8.57638322035e-05
8.14654226233e-05
7.72996982409e-05
7.32830543493e-05
6.94296970791e-05
6.57517851585e-05
6.22591463203e-05
5.89587140225e-05
5.58539012507e-05
5.29441698947e-05
5.02250017361e-05
4.76883377182e-05
4.53233941678e-05
4.31176625796e-05
4.10578867554e-05
3.91308685841e-05
3.73240368739e-05
3.56257836349e-05
3.40256124888e-05
3.25141562326e-05
3.10831154287e-05
2.97251573066e-05
2.84338010989e-05
2.7203305161e-05
2.60285637197e-05
2.49050163247e-05
2.38285704119e-05
2.27955360117e-05
2.18025710995e-05
2.08466359547e-05
1.99249550066e-05
1.90349848232e-05
1.81743871154e-05
1.73410058178e-05
1.6532847486e-05
1.57480643869e-05
1.49849397817e-05
1.42418749897e-05
1.35173779003e-05
1.28100526544e-05
1.21185902652e-05
1.14417599812e-05
1.07784012206e-05
1.01274159231e-05
9.48776117731e-06
8.85844198231e-06
8.23850399623e-06
7.62702609838e-06
7.02311254028e-06
6.42588435392e-06
5.83446948063e-06
5.24799068357e-06
4.66554953943e-06
4.08620334397e-06
3.50892906121e-06
2.93256370354e-06
2.35570316257e-06
1.77653308765e-06
1.1925645604e-06
6.00274346471e-07
8.77625053068e-08
0.000206601446405
0.000209105695542
0.000210206701127
0.000209949218852
0.000208862163535
0.000207366793065
0.000205728883193
0.000204090173323
0.000202514571838
0.000201023709352
0.000199618789078
0.000198292456259
0.000197034685655
0.000195835433222
0.000194685657564
0.000193577574792
0.000192504586176
0.00019146109104
0.000190442281145
0.000189443955475
0.00018846236728
0.000187494103398
0.000186535991296
0.000185585028217
0.000184638327082
0.000183693074712
0.000182746499472
0.000181795845223
0.000180838346961
0.000179871206793
0.000178891576674
0.000177896538652
0.000176883084521
0.000175848094119
0.000174788311543
0.000173700318524
0.000172580504032
0.000171425029005
0.0001702297848
0.000168990343623
0.000167701898754
0.000166359191884
0.000164956424473
0.00016348714972
0.000161944142073
0.000160319242524
0.000158603181367
0.000156785386851
0.000154853799882
0.000152794732863
0.00015059283451
0.000148231247431
0.000145692060534
0.000142957146368
0.000140009418791
0.0001368344533
0.000133422323828
0.000129769489713
0.000125880624475
0.000121770295436
0.000117464199227
0.000112999243353
0.000108421578933
0.000103782317903
9.91319693634e-05
9.45154679298e-05
8.99695243223e-05
8.5522697916e-05
8.11972027108e-05
7.70111011768e-05
7.29799173129e-05
6.9117425883e-05
6.54357576785e-05
6.19449765509e-05
5.86522906426e-05
5.55611681211e-05
5.26707060504e-05
4.99755347926e-05
4.74663426324e-05
4.51308833228e-05
4.29551947745e-05
4.09247538329e-05
3.90253842734e-05
3.72438530904e-05
3.55681804534e-05
3.39877334903e-05
3.24931814729e-05
3.10763768864e-05
2.97302074419e-05
2.84484463439e-05
2.72256150028e-05
2.60568639222e-05
2.49378726769e-05
2.38647674886e-05
2.28340539618e-05
2.18425623748e-05
2.08874031296e-05
1.99659303105e-05
1.90757116719e-05
1.82145037087e-05
1.73802307464e-05
1.65709672172e-05
1.57849224676e-05
1.5020427584e-05
1.42759238303e-05
1.35499523724e-05
1.28411450296e-05
1.2148215837e-05
1.14699532387e-05
1.08052127548e-05
1.01529099803e-05
9.51201378079e-06
8.88153954006e-06
8.26054229864e-06
7.64810957396e-06
7.04335356994e-06
6.44540233035e-06
5.85338911631e-06
5.26643880027e-06
4.68364920664e-06
4.1040638284e-06
3.5266298303e-06
2.95013132116e-06
2.37308267949e-06
1.79356241044e-06
1.20897128889e-06
6.15720228237e-07
9.78754724782e-08
0.000202922174512
0.000205285310808
0.000206543360713
0.000206649343015
0.000205984182635
0.000204884082732
0.000203584089865
0.000202224664271
0.000200879324364
0.000199580882658
0.000198339893791
0.000197155884884
0.000196023598314
0.000194936213203
0.000193886873038
0.000192869316857
0.000191878062583
0.000190908383612
0.000189956202953
0.000189017965853
0.000188090518447
0.000187171002983
0.000186256771899
0.000185345319353
0.000184434227419
0.000183521123884
0.000182603650505
0.000181679436066
0.000180746072944
0.000179801095225
0.000178841962599
0.000177866042956
0.000176870594658
0.000175852747677
0.000174809482872
0.000173737608533
0.000172633733256
0.000171494233926
0.000170315217297
0.000169092473179
0.00016782141665
0.000166497016018
0.000165113702394
0.000163665256039
0.000162144664207
0.000160543945863
0.000158853941294
0.000157064071163
0.00015516208214
0.000153133817488
0.000150963081613
0.000148631703827
0.000146119934965
0.000143407306325
0.00014047401549
0.000137302775326
0.000133880930595
0.000130202624282
0.000126270927082
0.00012209994982
0.000117716699102
0.000113161713328
0.00010848700405
0.000103750644811
9.90094326319e-05
9.4312426761e-05
8.96977945635e-05
8.51935017433e-05
8.08202989407e-05
7.65948651768e-05
7.25318476014e-05
6.86447157127e-05
6.49457869874e-05
6.14456256453e-05
5.81519612914e-05
5.50684593283e-05
5.21938214518e-05
4.95216094947e-05
4.70409001936e-05
4.47375626671e-05
4.25957728015e-05
4.05993958914e-05
3.87330148768e-05
3.69825482904e-05
3.53355166233e-05
3.37810625493e-05
3.2309828208e-05
3.0913768121e-05
2.95859479821e-05
2.83203566423e-05
2.71117430955e-05
2.59554812321e-05
2.48474605049e-05
2.37839988155e-05
2.27617735232e-05
2.17777668242e-05
2.08292223119e-05
1.99136101695e-05
1.90285989874e-05
1.81720326781e-05
1.73419113132e-05
1.65363750016e-05
1.57536901322e-05
1.49922374696e-05
1.42505017075e-05
1.35270621721e-05
1.28205844318e-05
1.21298126186e-05
1.14535622957e-05
1.07907137306e-05
1.01402054407e-05
9.50102788219e-06
8.8722171349e-06
8.25284840642e-06
7.64202911424e-06
7.03889119626e-06
6.44258211075e-06
5.85225366896e-06
5.26704730722e-06
4.686073517e-06
4.10838171248e-06
3.53291459666e-06
2.95843798135e-06
2.38343351382e-06
1.80593991252e-06
1.22333263105e-06
6.320472009e-07
1.10421797714e-07
0.000199887988975
0.00020210632419
0.000203443901933
0.000203804274007
0.000203461981039
0.000202682098013
0.000201666815188
0.000200548594492
0.000199404657239
0.000198275173801
0.000197177973172
0.000196118496111
0.000195095881716
0.000194106434827
0.000193145480376
0.000192208282963
0.000191290450204
0.00019038806468
0.000189497682353
0.00018861627241
0.000187741137617
0.000186869834361
0.000186000100766
0.000185129795623
0.00018425684812
0.000183379216971
0.000182494859626
0.000181601705204
0.000180697629823
0.000179780436553
0.000178847838906
0.00017789744426
0.000176926737174
0.000175933061854
0.000174913602968
0.000173865363953
0.000172785141818
0.000171669497173
0.000170514717858
0.000169316773975
0.000168071261425
0.000166773330033
0.000165417591214
0.000163997998744
0.000162507695128
0.000160938815557
0.000159282243099
0.000157527314397
0.000155661488044
0.000153670012061
0.000151535665358
0.000149238698726
0.000146757148856
0.000144067709861
0.000141147273215
0.000137975067817
0.000134535125292
0.000130818755876
0.000126826971776
0.000122573085634
0.000118085434306
0.000113408967688
0.000108603279104
0.000103735663853
9.887121308e-05
9.40642607403e-05
8.93545620338e-05
8.4768986691e-05
8.03263004137e-05
7.60415581919e-05
7.19285474531e-05
6.80005928493e-05
6.42704524419e-05
6.07495097532e-05
5.7446319995e-05
5.43649166457e-05
5.15035500726e-05
4.88544149031e-05
4.64045022363e-05
4.41372582352e-05
4.20344966003e-05
4.00780694385e-05
3.8251030677e-05
3.65382603882e-05
3.49266605451e-05
3.34050755409e-05
3.19640718806e-05
3.05956703599e-05
2.92930847158e-05
2.80504921133e-05
2.68628433341e-05
2.57257113481e-05
2.46351730308e-05
2.35877177699e-05
2.2580177079e-05
2.16096702485e-05
2.06735620772e-05
1.97694296389e-05
1.88950357997e-05
1.80483077837e-05
1.722731954e-05
1.64302769858e-05