/*--------------------------------*- C++ -*----------------------------------*\
  =========                 |
  \\      /  F ield         | OpenFOAM: The Open Source CFD Toolbox
   \\    /   O peration     | Website:  https://openfoam.org
    \\  /    A nd           | Version:  7
     \\/     M anipulation  |
\*---------------------------------------------------------------------------*/
FoamFile
{
    version     2.0;
    format      ascii;
    class       volScalarField;
    location    "2280";
    object      Ci;
}
// * * * * * * * * * * * * * * * * * * * * * * * * * * * * * * * * * * * * * //

dimensions      [0 -3 0 0 1 0 0];

internalField   nonuniform List<scalar> 
8192
(
9.99999999343
10.0000000235
10.0000000772
10.0000001638
10.0000002902
10.0000004443
10.0000006148
10.0000007929
10.0000009733
10.0000011504
10.0000013207
10.0000014793
10.0000016238
10.0000017498
10.0000018558
10.000001938
10.0000019962
10.0000020271
10.0000020318
10.0000020079
10.0000019575
10.000001879
10.0000017756
10.0000016462
10.0000014951
10.0000013216
10.0000011308
10.0000009223
10.0000007017
10.0000004683
10.0000002282
9.99999998003
9.99999972981
9.99999947544
9.99999922248
9.99999896773
9.99999871625
9.99999846375
9.99999821477
9.99999796395
9.99999771541
9.99999746304
9.99999721087
9.99999695237
9.9999966919
9.99999642292
9.99999615053
9.99999586863
9.99999558351
9.99999529006
9.99999499648
9.99999469952
9.99999441025
9.99999412819
9.99999386802
9.99999363224
9.99999343855
9.99999329096
9.99999320775
9.99999319133
9.99999325718
9.99999340336
9.99999364074
9.99999396288
9.99999437733
9.99999487536
9.99999546277
9.9999961287
9.99999687513
9.99999768612
9.99999855724
9.9999994671
10.0000004071
10.0000013546
10.0000023022
10.0000032313
10.0000041393
10.0000050143
10.0000058595
10.0000066695
10.000007452
10.0000082059
10.0000089413
10.000009659
10.0000103694
10.0000110729
10.0000117785
10.0000124855
10.0000132
10.0000139198
10.0000146483
10.0000153815
10.0000161213
10.0000168637
10.0000176087
10.0000183499
10.0000190853
10.0000198081
10.0000205154
10.0000212008
10.0000218613
10.0000224912
10.000023088
10.000023647
10.0000241661
10.000024642
10.0000250733
10.0000254579
10.0000257949
10.0000260836
10.0000263235
10.000026515
10.0000266581
10.0000267543
10.0000268038
10.000026809
10.0000267704
10.0000266908
10.0000265706
10.0000264126
10.0000262166
10.0000259854
10.0000257188
10.000025422
10.0000251006
10.0000247702
10.0000244588
10.0000242317
9.99999999639
10.0000000437
10.000000103
10.0000001854
10.0000002955
10.0000004283
10.0000005787
10.0000007408
10.0000009096
10.0000010797
10.0000012468
10.0000014058
10.0000015537
10.0000016861
10.0000018008
10.0000018941
10.0000019653
10.0000020113
10.0000020325
10.0000020267
10.0000019954
10.0000019372
10.0000018546
10.0000017469
10.0000016176
10.0000014664
10.0000012978
10.0000011118
10.0000009131
10.0000007019
10.0000004832
10.0000002567
10.0000000274
9.99999979432
9.99999956208
9.99999932865
9.99999909834
9.99999886823
9.99999864206
9.99999841598
9.99999819329
9.9999979694
9.99999774743
9.99999752235
9.99999729737
9.99999706731
9.99999683577
9.99999659773
9.99999635751
9.99999611069
9.99999586291
9.99999561106
9.99999536296
9.9999951177
9.99999488596
9.99999466944
9.99999448144
9.99999432534
9.99999421541
9.99999415465
9.99999415593
9.99999421989
9.99999435662
9.99999456422
9.99999485057
9.99999521222
9.99999565542
9.99999617456
9.99999677222
9.99999743807
9.99999816892
9.99999894925
9.99999977155
10.0000006183
10.0000014815
10.0000023456
10.0000032055
10.0000040502
10.000004879
10.0000056856
10.0000064735
10.0000072404
10.0000079926
10.00000873
10.0000094599
10.000010183
10.0000109057
10.0000116281
10.0000123552
10.0000130854
10.0000138217
10.000014561
10.0000153046
10.0000160523
10.0000168023
10.000017549
10.0000182898
10.0000190189
10.0000197331
10.0000204266
10.0000210963
10.0000217371
10.0000223459
10.0000229185
10.0000234526
10.0000239451
10.0000243941
10.0000247978
10.0000251548
10.0000254646
10.0000257264
10.0000259405
10.0000261068
10.0000262265
10.0000263
10.0000263292
10.0000263148
10.0000262592
10.0000261631
10.0000260289
10.0000258569
10.0000256493
10.0000254065
10.000025133
10.0000248335
10.0000245169
10.0000241949
10.0000239224
9.99999999823
10.0000000659
10.0000001369
10.0000002143
10.0000003074
10.0000004161
10.0000005397
10.0000006755
10.0000008218
10.0000009741
10.0000011298
10.0000012836
10.0000014331
10.0000015731
10.0000017019
10.0000018148
10.0000019111
10.0000019867
10.0000020423
10.0000020745
10.0000020851
10.0000020713
10.0000020362
10.0000019776
10.0000018996
10.0000018005
10.0000016853
10.0000015526
10.0000014081
10.0000012504
10.0000010857
10.0000009124
10.0000007369
10.0000005569
10.0000003788
10.0000001997
10.0000000256
9.99999985259
9.99999968645
9.99999952228
9.99999936541
9.99999921004
9.99999906115
9.99999891212
9.99999876769
9.99999862051
9.99999847523
9.99999832391
9.99999817134
9.99999800933
9.99999784331
9.99999766556
9.99999748306
9.99999728961
9.99999709472
9.99999689456
9.99999670157
9.99999651421
9.99999634705
9.9999961996
9.99999608689
9.99999600795
9.99999597682
9.99999599145
9.99999606469
9.99999619367
9.9999963901
9.99999664982
9.9999969818
9.99999737854
9.99999784428
9.99999836734
9.99999894765
9.99999957102
10.0000002353
10.0000009263
10.000001642
10.0000023698
10.0000031093
10.0000038507
10.0000045956
10.0000053372
10.000006079
10.0000068167
10.000007555
10.0000082909
10.0000090297
10.0000097688
10.0000105125
10.0000112581
10.0000120087
10.0000127606
10.0000135153
10.0000142694
10.0000150234
10.0000157725
10.0000165155
10.0000172471
10.0000179652
10.0000186644
10.0000193421
10.0000199936
10.0000206162
10.0000212058
10.0000217601
10.000022276
10.0000227515
10.0000231849
10.0000235743
10.0000239192
10.0000242182
10.0000244719
10.0000246794
10.0000248421
10.0000249595
10.0000250339
10.0000250652
10.0000250564
10.0000250073
10.0000249212
10.0000247975
10.0000246394
10.0000244462
10.0000242227
10.0000239716
10.0000236992
10.000023405
10.0000231229
9.99999999788
10.0000000851
10.0000001627
10.0000002449
10.0000003374
10.0000004395
10.0000005512
10.0000006717
10.0000008006
10.0000009359
10.0000010759
10.0000012178
10.0000013591
10.0000014966
10.000001628
10.00000175
10.0000018608
10.0000019576
10.0000020395
10.0000021041
10.0000021515
10.00000218
10.0000021908
10.0000021827
10.0000021578
10.0000021156
10.0000020587
10.0000019875
10.0000019051
10.0000018119
10.0000017117
10.000001605
10.0000014956
10.0000013838
10.0000012734
10.0000011642
10.0000010597
10.0000009589
10.0000008648
10.0000007757
10.0000006938
10.0000006163
10.0000005449
10.0000004758
10.0000004099
10.0000003426
10.000000274
10.000000199
10.0000001174
10.0000000238
9.99999991806
9.99999979553
9.99999965741
9.99999950063
9.9999993288
9.99999914155
9.99999894538
9.9999987427
9.99999854231
9.99999834822
9.99999816994
9.9999980114
9.99999788125
9.99999778236
9.99999772225
9.99999770298
9.99999773139
9.99999780875
9.99999794042
9.99999812537
9.99999836597
9.99999865823
9.99999900192
9.99999939127
9.99999982493
10.0000002967
10.000000805
10.0000013439
10.000001912
10.0000025039
10.0000031184
10.000003751
10.0000044012
10.0000050651
10.000005743
10.0000064317
10.0000071318
10.0000078408
10.000008559
10.000009284
10.0000100158
10.0000107517
10.0000114908
10.0000122301
10.0000129683
10.0000137019
10.0000144289
10.0000151455
10.000015849
10.0000165354
10.000017202
10.0000178449
10.0000184612
10.0000190477
10.0000196019
10.000020121
10.0000206029
10.0000210458
10.0000214481
10.0000218087
10.0000221267
10.0000224018
10.0000226337
10.0000228228
10.0000229692
10.0000230744
10.0000231389
10.0000231645
10.0000231524
10.0000231047
10.0000230223
10.0000229078
10.0000227614
10.0000225875
10.0000223832
10.0000221613
10.0000218962
10.0000216786
10.0000000052
10.0000001111
10.0000002087
10.0000002996
10.0000003944
10.0000004943
10.0000006
10.0000007114
10.0000008289
10.0000009513
10.000001078
10.0000012069
10.0000013367
10.000001465
10.0000015904
10.0000017102
10.0000018231
10.0000019268
10.0000020204
10.0000021018
10.0000021709
10.0000022262
10.0000022681
10.0000022959
10.0000023106
10.000002312
10.000002302
10.0000022807
10.0000022506
10.0000022121
10.0000021682
10.0000021194
10.0000020688
10.0000020168
10.0000019665
10.0000019178
10.0000018737
10.0000018332
10.0000017986
10.0000017684
10.0000017439
10.0000017227
10.0000017051
10.000001688
10.0000016708
10.0000016494
10.0000016229
10.0000015867
10.0000015396
10.0000014769
10.000001398
10.000001299
10.0000011806
10.0000010407
10.0000008823
10.0000007059
10.0000005171
10.0000003192
10.0000001198
9.99999992355
9.99999973861
9.99999956892
9.99999942151
9.99999929865
9.99999920571
9.99999914375
9.99999911733
9.99999912691
9.99999917602
9.99999926357
9.99999939103
9.9999995555
9.99999975709
9.99999999247
10.0000002618
10.0000005624
10.000000895
10.0000012576
10.000001651
10.0000020735
10.0000025256
10.0000030054
10.0000035131
10.0000040462
10.0000046044
10.0000051851
10.0000057874
10.0000064084
10.0000070468
10.0000076996
10.0000083651
10.0000090399
10.0000097219
10.0000104075
10.0000110942
10.0000117784
10.0000124573
10.0000131273
10.0000137853
10.0000144279
10.0000150521
10.0000156545
10.0000162324
10.0000167829
10.0000173036
10.0000177921
10.0000182465
10.0000186652
10.0000190465
10.0000193897
10.0000196938
10.0000199586
10.0000201837
10.0000203697
10.0000205167
10.000020626
10.0000206982
10.0000207353
10.0000207382
10.0000207094
10.0000206499
10.0000205629
10.0000204474
10.000020311
10.0000201426
10.0000199735
10.0000197231
10.0000196186
10.0000000049
10.0000001227
10.0000002272
10.0000003299
10.0000004353
10.0000005422
10.000000651
10.0000007618
10.0000008755
10.0000009917
10.0000011101
10.0000012298
10.0000013499
10.000001469
10.000001586
10.0000016992
10.0000018077
10.0000019097
10.0000020047
10.0000020911
10.0000021687
10.0000022363
10.0000022941
10.0000023416
10.0000023795
10.0000024075
10.0000024269
10.000002438
10.0000024425
10.0000024408
10.0000024352
10.0000024258
10.0000024155
10.0000024039
10.0000023942
10.0000023852
10.00000238
10.0000023767
10.0000023779
10.0000023808
10.0000023871
10.0000023936
10.0000024007
10.0000024051
10.0000024059
10.0000023997
10.0000023852
10.0000023587
10.0000023189
10.0000022625
10.0000021884
10.0000020943
10.0000019804
10.0000018459
10.0000016929
10.0000015233
10.0000013418
10.0000011527
10.0000009629
10.0000007783
10.0000006061
10.0000004517
10.0000003202
10.0000002148
10.0000001382
10.0000000913
10.0000000756
10.000000091
10.0000001382
10.0000002154
10.0000003214
10.000000453
10.0000006083
10.0000007845
10.0000009809
10.0000011962
10.0000014313
10.0000016862
10.0000019629
10.0000022619
10.0000025854
10.0000029339
10.0000033089
10.0000037104
10.000004139
10.0000045938
10.0000050744
10.0000055788
10.0000061058
10.0000066526
10.000007217
10.0000077958
10.0000083861
10.0000089841
10.0000095868
10.0000101901
10.0000107907
10.0000113846
10.0000119688
10.0000125394
10.0000130934
10.0000136276
10.0000141392
10.0000146257
10.0000150847
10.0000155141
10.0000159123
10.0000162778
10.0000166094
10.0000169064
10.0000171682
10.0000173947
10.0000175859
10.0000177423
10.0000178645
10.0000179536
10.0000180107
10.0000180375
10.0000180353
10.0000180068
10.0000179528
10.0000178777
10.0000177778
10.000017667
10.0000175175
10.0000173982
10.0000171474
10.0000171606
10.0000000103
10.0000001379
10.000000258
10.0000003689
10.0000004794
10.0000005898
10.0000007002
10.0000008108
10.0000009221
10.0000010342
10.000001147
10.00000126
10.0000013725
10.0000014837
10.0000015928
10.0000016989
10.000001801
10.0000018982
10.0000019899
10.0000020751
10.0000021534
10.0000022243
10.0000022877
10.0000023434
10.0000023916
10.0000024324
10.0000024667
10.0000024945
10.0000025176
10.0000025353
10.0000025508
10.0000025623
10.0000025744
10.0000025836
10.000002596
10.0000026059
10.0000026211
10.0000026338
10.0000026521
10.0000026673
10.0000026864
10.0000027013
10.0000027165
10.0000027258
10.0000027306
10.0000027268
10.0000027138
10.0000026888
10.0000026501
10.0000025958
10.0000025243
10.0000024344
10.0000023252
10.0000021968
10.0000020504
10.000001888
10.0000017136
10.0000015321
10.0000013499
10.0000011738
10.0000010111
10.0000008682
10.0000007503
10.0000006611
10.0000006026
10.0000005757
10.0000005805
10.0000006165
10.0000006829
10.0000007772
10.0000008966
10.0000010371
10.0000011953
10.0000013678
10.0000015525
10.0000017479
10.0000019538
10.0000021703
10.0000023986
10.00000264
10.0000028964
10.0000031695
10.0000034611
10.0000037727
10.0000041056
10.0000044606
10.000004838
10.0000052374
10.000005658
10.0000060985
10.0000065569
10.0000070309
10.0000075177
10.0000080142
10.0000085171
10.0000090227
10.0000095275
10.0000100279
10.0000105202
10.0000110011
10.0000114673
10.0000119158
10.0000123437
10.0000127488
10.0000131288
10.0000134819
10.0000138066
10.0000141017
10.0000143664
10.0000146002
10.0000148029
10.0000149746
10.0000151156
10.0000152266
10.0000153086
10.0000153628
10.0000153904
10.0000153935
10.0000153733
10.000015333
10.0000152725
10.0000151986
10.0000151029
10.0000150091
10.0000148688
10.0000147908
10.0000145395
10.0000146356
10.0000000067
10.0000001388
10.0000002597
10.0000003791
10.0000004996
10.0000006186
10.0000007354
10.0000008502
10.0000009636
10.0000010755
10.0000011865
10.0000012961
10.0000014043
10.0000015105
10.0000016143
10.0000017148
10.0000018118
10.0000019044
10.0000019922
10.0000020745
10.0000021512
10.0000022216
10.0000022861
10.0000023439
10.0000023961
10.0000024415
10.0000024826
10.000002517
10.0000025492
10.0000025747
10.0000026014
10.0000026203
10.000002645
10.0000026598
10.0000026859
10.0000026987
10.0000027278
10.0000027401
10.0000027714
10.0000027837
10.0000028135
10.0000028249
10.0000028476
10.0000028545
10.0000028639
10.0000028601
10.0000028506
10.0000028281
10.0000027937
10.0000027445
10.0000026792
10.0000025959
10.0000024939
10.0000023722
10.0000022314
10.0000020732
10.0000019011
10.0000017201
10.000001537
10.0000013597
10.0000011964
10.000001055
10.0000009417
10.0000008609
10.0000008145
10.0000008032
10.0000008258
10.0000008814
10.0000009679
10.0000010823
10.0000012205
10.0000013779
10.0000015502
10.0000017334
10.0000019254
10.0000021239
10.0000023285
10.0000025387
10.0000027552
10.0000029787
10.0000032105
10.0000034517
10.0000037041
10.0000039689
10.0000042477
10.0000045413
10.0000048508
10.0000051762
10.0000055178
10.0000058746
10.0000062458
10.0000066296
10.000007024
10.0000074266
10.0000078346
10.0000082449
10.0000086545
10.00000906
10.0000094583
10.0000098461
10.0000102206
10.0000105789
10.0000109186
10.0000112374
10.0000115335
10.0000118053
10.0000120517
10.0000122717
10.0000124648
10.0000126309
10.00001277
10.0000128824
10.000012969
10.0000130305
10.0000130682
10.0000130835
10.0000130778
10.0000130534
10.0000130113
10.0000129554
10.0000128844
10.0000128076
10.0000127118
10.0000126294
10.0000124957
10.0000124461
10.0000122073
10.0000123394
10.0000000116
10.0000001514
10.0000002849
10.0000004089
10.0000005318
10.0000006532
10.0000007723
10.0000008888
10.000001003
10.0000011149
10.0000012246
10.0000013323
10.0000014377
10.0000015407
10.0000016407
10.0000017375
10.0000018307
10.0000019198
10.0000020044
10.0000020841
10.0000021588
10.0000022279
10.000002292
10.0000023498
10.0000024034
10.00000245
10.0000024946
10.0000025304
10.0000025687
10.0000025946
10.0000026304
10.000002647
10.0000026853
10.0000026927
10.0000027381
10.0000027364
10.0000027914
10.0000027817
10.0000028448
10.0000028304
10.000002894
10.0000028798
10.0000029327
10.000002922
10.0000029539
10.0000029441
10.0000029497
10.0000029316
10.0000029092
10.0000028704
10.0000028172
10.0000027466
10.0000026565
10.0000025459
10.0000024138
10.0000022617
10.000002092
10.0000019102
10.000001723
10.0000015395
10.0000013688
10.0000012207
10.0000011024
10.0000010195
10.0000009738
10.0000009658
10.0000009938
10.000001056
10.0000011495
10.000001271
10.0000014157
10.0000015791
10.0000017565
10.0000019446
10.0000021406
10.000002343
10.0000025511
10.0000027645
10.000002983
10.0000032067
10.0000034355
10.0000036702
10.0000039105
10.0000041583
10.0000044141
10.0000046788
10.0000049529
10.0000052368
10.0000055304
10.0000058336
10.0000061454
10.0000064649
10.0000067906
10.0000071207
10.0000074528
10.0000077848
10.0000081138
10.0000084374
10.0000087528
10.0000090574
10.0000093487
10.0000096244
10.0000098824
10.000010121
10.0000103387
10.0000105343
10.000010707
10.0000108563
10.000010982
10.0000110843
10.0000111635
10.0000112203
10.0000112557
10.0000112708
10.0000112671
10.000011246
10.0000112093
10.0000111591
10.0000110965
10.0000110258
10.0000109447
10.000010864
10.0000107678
10.0000106926
10.0000105681
10.0000105337
10.0000103218
10.0000104522
10.0000000071
10.0000001507
10.0000002837
10.0000004151
10.0000005468
10.0000006759
10.0000008014
10.0000009229
10.0000010408
10.000001155
10.000001266
10.0000013739
10.0000014788
10.0000015805
10.000001679
10.000001774
10.0000018654
10.0000019526
10.0000020357
10.0000021139
10.0000021879
10.000002256
10.0000023205
10.0000023778
10.0000024335
10.0000024793
10.0000025285
10.000002562
10.000002609
10.0000026283
10.00000268
10.0000026813
10.0000027475
10.000002725
10.0000028168
10.0000027635
10.0000028902
10.0000028024
10.0000029644
10.0000028484
10.0000030304
10.0000029058
10.0000030771
10.0000029713
10.0000030983
10.0000030294
10.0000030947
10.0000030565
10.0000030655
10.0000030319
10.0000029971
10.0000029393
10.000002862
10.0000027613
10.0000026354
10.000002485
10.000002312
10.0000021219
10.0000019221
10.0000017235
10.000001537
10.0000013754
10.0000012474
10.0000011609
10.0000011172
10.0000011165
10.0000011545
10.0000012284
10.000001333
10.000001464
10.0000016152
10.0000017817
10.0000019588
10.0000021438
10.0000023354
10.000002533
10.0000027369
10.0000029469
10.0000031631
10.0000033853
10.0000036131
10.000003846
10.0000040836
10.0000043254
10.0000045714
10.0000048213
10.0000050755
10.0000053351
10.0000056
10.0000058697
10.0000061434
10.0000064203
10.0000066989
10.0000069778
10.0000072552
10.0000075289
10.0000077971
10.0000080573
10.0000083075
10.0000085454
10.0000087693
10.0000089772
10.0000091676
10.0000093392
10.000009491
10.0000096223
10.0000097327
10.000009822
10.0000098906
10.0000099388
10.0000099674
10.0000099773
10.0000099699
10.0000099464
10.0000099083
10.0000098575
10.0000097955
10.0000097247
10.0000096462
10.000009564
10.0000094759
10.0000093925
10.0000092982
10.0000092274
10.0000091155
10.0000090864
10.0000089096
10.0000090183
10.0000000125
10.0000001647
10.0000003108
10.0000004464
10.00000058
10.0000007111
10.0000008388
10.0000009626
10.0000010824
10.0000011983
10.0000013103
10.0000014188
10.0000015237
10.0000016252
10.0000017231
10.0000018174
10.000001908
10.0000019945
10.0000020772
10.0000021548
10.0000022292
10.0000022969
10.000002363
10.0000024195
10.000002479
10.0000025224
10.0000025794
10.000002606
10.0000026687
10.0000026711
10.0000027537
10.0000027183
10.0000028434
10.0000027478
10.0000029464
10.0000027613
10.0000030671
10.0000027653
10.0000031987
10.0000027754
10.0000033188
10.0000028159
10.0000033956
10.0000029055
10.0000034078
10.0000030356
10.000003367
10.0000031607
10.0000033072
10.0000032218
10.0000032393
10.0000031847
10.0000031277
10.0000030391
10.0000029221
10.0000027755
10.0000026
10.0000024014
10.0000021874
10.0000019703
10.0000017636
10.0000015821
10.0000014383
10.0000013413
10.0000012941
10.0000012947
10.000001338
10.0000014181
10.0000015287
10.0000016631
10.0000018153
10.0000019789
10.0000021501
10.0000023274
10.0000025104
10.0000026996
10.0000028959
10.0000030998
10.0000033116
10.0000035311
10.0000037575
10.0000039899
10.0000042271
10.000004468
10.0000047114
10.0000049566
10.0000052024
10.0000054493
10.0000056955
10.0000059431
10.0000061914
10.0000064394
10.0000066859
10.0000069293
10.0000071681
10.0000074005
10.0000076245
10.0000078384
10.0000080402
10.0000082283
10.0000084012
10.0000085573
10.0000086957
10.0000088155
10.000008916
10.000008997
10.0000090586
10.0000091009
10.0000091247
10.0000091305
10.0000091196
10.0000090932
10.0000090526
10.0000089993
10.0000089353
10.000008862
10.0000087816
10.0000086959
10.0000086064
10.0000085165
10.000008425
10.0000083402
10.00000825
10.0000081821
10.0000080846
10.0000080557
10.000007915
10.0000079963
10.0000000079
10.0000001646
10.0000003109
10.0000004545
10.0000005974
10.0000007367
10.0000008714
10.0000010012
10.0000011259
10.0000012457
10.0000013608
10.0000014716
10.0000015783
10.0000016809
10.0000017799
10.0000018747
10.0000019661
10.000002053
10.0000021367
10.0000022147
10.0000022908
10.0000023586
10.0000024281
10.0000024834
10.0000025493
10.0000025882
10.0000026579
10.0000026717
10.0000027602
10.0000027318
10.0000028673
10.0000027635
10.0000029951
10.0000027585
10.0000031628
10.0000027073
10.0000033862
10.0000026081
10.0000036625
10.0000024832
10.0000039507
10.0000023939
10.0000041648
10.0000024303
10.0000042101
10.0000026517
10.0000040619
10.0000030032
10.0000038153
10.0000033162
10.0000036065
10.0000034424
10.000003455
10.0000033611
10.0000032548
10.0000031081
10.0000029232
10.0000027058
10.0000024657
10.0000022179
10.000001977
10.000001764
10.0000015976
10.0000014915
10.0000014465
10.0000014586
10.0000015182
10.000001618
10.000001748
10.0000019003
10.0000020642
10.0000022327
10.0000024025
10.0000025729
10.0000027454
10.000002922
10.0000031052
10.0000032965
10.0000034971
10.0000037068
10.0000039252
10.0000041509
10.0000043825
10.0000046182
10.0000048562
10.0000050952
10.0000053334
10.0000055703
10.0000058044
10.0000060358
10.000006263
10.0000064876
10.0000067085
10.0000069243
10.0000071334
10.0000073342
10.0000075251
10.0000077041
10.0000078698
10.0000080207
10.0000081555
10.0000082731
10.0000083728
10.000008454
10.0000085164
10.0000085602
10.0000085857
10.0000085933
10.0000085842
10.0000085593
10.0000085199
10.0000084674
10.0000084035
10.0000083298
10.0000082482
10.0000081603
10.0000080683
10.0000079738
10.0000078788
10.0000077855
10.0000076943
10.0000076104
10.0000075268
10.0000074619
10.0000073796
10.0000073496
10.0000072419
10.0000072986
10.0000000137
10.0000001801
10.0000003402
10.0000004883
10.0000006335
10.0000007754
10.0000009131
10.0000010462
10.0000011743
10.0000012973
10.0000014153
10.0000015285
10.0000016373
10.0000017417
10.0000018421
10.0000019382
10.0000020309
10.0000021188
10.0000022043
10.0000022831
10.0000023618
10.0000024298
10.0000025037
10.0000025576
10.0000026316
10.0000026644
10.0000027501
10.000002747
10.0000028689
10.0000027987
10.0000030052
10.0000028053
10.0000031879
10.0000027417
10.0000034586
10.0000025709
10.0000038668
10.0000022551
10.000004446
10.0000017902
10.0000051631
10.0000012651
10.0000058588
10.0000009058
10.0000062461
10.0000010103
10.0000060587
10.0000017085
10.0000053334
10.0000027156
10.0000044968
10.0000034744
10.0000039611
10.0000036908
10.0000036633
10.0000035067
10.0000033118
10.0000030785
10.0000028149
10.0000025285
10.0000022363
10.0000019828
10.0000018006
10.0000016841
10.0000016108
10.0000015715
10.0000015785
10.0000016474
10.000001781
10.0000019645
10.0000021722
10.0000023829
10.0000025849
10.000002775
10.000002956
10.0000031334
10.0000033124
10.0000034974
10.0000036907
10.0000038935
10.0000041055
10.0000043253
10.0000045512
10.0000047808
10.0000050121
10.0000052433
10.0000054728
10.0000056994
10.000005922
10.00000614
10.0000063522
10.0000065583
10.0000067576
10.0000069505
10.0000071355
10.0000073109
10.0000074751
10.0000076265
10.0000077638
10.0000078856
10.0000079908
10.0000080787
10.0000081488
10.0000082007
10.0000082345
10.0000082505
10.0000082494
10.0000082319
10.0000081992
10.0000081525
10.0000080933
10.0000080231
10.0000079438
10.0000078569
10.0000077646
10.0000076682
10.0000075704
10.0000074719
10.0000073758
10.0000072824
10.0000071946
10.0000071135
10.0000070381
10.0000069767
10.0000069097
10.000006879
10.0000068003
10.0000068371
10.0000000093
10.0000001805
10.0000003414
10.0000004979
10.0000006528
10.0000008036
10.0000009492
10.0000010893
10.0000012236
10.0000013521
10.000001475
10.0000015924
10.0000017048
10.0000018122
10.0000019155
10.0000020139
10.0000021091
10.0000021988
10.000002287
10.0000023674
10.0000024495
10.0000025185
10.0000025973
10.0000026506
10.0000027327
10.0000027609
10.0000028616
10.0000028442
10.0000029966
10.000002889
10.0000031624
10.0000028705
10.000003404
10.0000027401
10.0000037976
10.0000024134
10.0000044581
10.0000017694
10.0000055218
10.0000006895
10.0000070713
9.99999917395
10.0000089777
9.99999753585
10.0000107024
9.99999652651
10.0000113353
9.99999704042
10.0000101892
9.99999925717
10.0000077058
10.0000019981
10.0000054225
10.0000036318
10.0000043028
10.000003893
10.000003731
10.0000034998
10.0000031901
10.0000027799
10.0000024045
10.0000022241
10.0000021103
10.0000017502
10.000000991
10.000000021
9.99999921786
9.99999888662
9.9999991056
9.99999973803
10.0000005578
10.0000013665
10.0000020509
10.0000025796
10.0000029735
10.0000032718
10.0000035129
10.0000037252
10.0000039274
10.0000041304
10.00000434
10.0000045582
10.0000047844
10.0000050159
10.0000052495
10.0000054813
10.0000057081
10.0000059274
10.0000061378
10.0000063384
10.0000065292
10.00000671
10.0000068813
10.0000070428
10.0000071959
10.0000073394
10.0000074722
10.0000075929
10.0000077004
10.0000077933
10.0000078708
10.000007932
10.0000079765
10.0000080041
10.000008015
10.0000080095
10.0000079884
10.0000079524
10.0000079031
10.0000078413
10.0000077692
10.0000076878
10.0000075995
10.0000075052
10.000007408
10.000007308
10.0000072092
10.0000071105
10.0000070173
10.0000069264
10.0000068451
10.0000067679
10.0000067029
10.0000066449
10.0000065935
10.0000065614
10.0000065083
10.0000065278
10.0000000153
10.0000001965
10.0000003712
10.0000005324
10.0000006898
10.0000008435
10.0000009927
10.000001137
10.0000012758
10.0000014089
10.0000015362
10.0000016578
10.000001774
10.0000018848
10.0000019913
10.0000020924
10.0000021905
10.0000022826
10.0000023735
10.0000024562
10.0000025414
10.0000026125
10.000002695
10.0000027501
10.0000028369
10.0000028662
10.0000029736
10.0000029548
10.0000031187
10.0000030022
10.0000033011
10.0000029768
10.000003578
10.0000028103
10.0000040591
10.0000023664
10.0000049406
10.0000014042
10.0000065331
9.99999957004
10.0000092251
9.9999965034
10.000013265
9.9999922084
10.0000182372
9.99998767471
10.0000224651
9.99998521237
10.0000232454
9.99998733598
10.0000189363
9.99999393536
10.0000117054
10.0000007652
10.0000064764
10.0000036818
10.0000044971
10.0000041293
10.0000034419
10.000002769
10.0000030917
10.0000038222
10.0000020849
9.99999548589
9.99998465696
9.99997307926
9.99996475888
9.99996204767
9.9999649087
9.99997152738
9.99997955572
9.99998709472
9.99999312165
9.99999740676
10.0000001986
10.0000019131
10.0000029397
10.0000035647
10.0000039681
10.0000042506
10.0000044651
10.0000046404
10.0000047952
10.0000049441
10.0000050985
10.0000052658
10.0000054491
10.0000056474
10.0000058566
10.0000060714
10.000006286
10.0000064951
10.0000066947
10.0000068817
10.0000070541
10.0000072115
10.0000073527
10.0000074767
10.0000075828
10.0000076706
10.0000077399
10.0000077907
10.0000078232
10.0000078378
10.0000078353
10.0000078163
10.0000077822
10.0000077339
10.0000076733
10.0000076014
10.0000075208
10.0000074318
10.0000073384
10.0000072395
10.0000071408
10.000007039
10.0000069423
10.000006844
10.0000067564
10.0000066669
10.0000065946
10.0000065181
10.0000064654
10.0000064045
10.0000063698
10.0000063266
10.0000062974
10.0000062868
10.0000000109
10.0000001972
10.0000003728
10.0000005424
10.0000007094
10.0000008719
10.0000010293
10.000001181
10.0000013269
10.0000014666
10.0000016001
10.0000017272
10.0000018486
10.000001964
10.0000020746
10.0000021796
10.0000022812
10.0000023768
10.0000024709
10.0000025569
10.000002645
10.0000027201
10.0000028047
10.0000028654
10.0000029523
10.0000029907
10.0000030931
10.0000030917
10.0000032393
10.0000031571
10.0000034169
10.0000031583
10.0000036816
10.0000030265
10.0000041518
10.0000026038
10.0000050725
10.0000015581
10.0000069185
9.99999926315
10.000010509
9.99999473291
10.0000169516
9.99998689871
10.0000270211
9.99997568758
10.0000395847
9.99996393587
10.0000497849
9.99995831744
10.0000499607
9.99996566144
10.0000362785
9.99998412135
10.0000173758
9.99999890419
10.0000081506
10.0000034976
10.0000019657
10.0000046433
10.0000111007
10.0000039013
9.99995958555
9.99987261558
9.9997633208
9.99966589951
9.99960897365
9.99960396031
9.99964416151
9.99971185063
9.99978743857
9.99985606823
9.99991009545
9.99994814698
9.9999726176
9.99998723106
9.99999548521
10.0000000159
10.0000025512
10.0000041006
10.0000051871
10.0000060372
10.0000067232
10.0000072543
10.0000076293
10.0000078578
10.0000079642
10.0000079812
10.0000079433
10.0000078802
10.0000078142
10.000007759
10.0000077217
10.0000077039
10.0000077034
10.0000077165
10.0000077389
10.0000077649
10.0000077902
10.0000078104
10.0000078229
10.000007825
10.0000078156
10.0000077936
10.0000077593
10.0000077123
10.0000076542
10.0000075846
10.0000075067
10.0000074192
10.0000073275
10.0000072278
10.0000071289
10.000007023
10.0000069243
10.0000068174
10.0000067258
10.0000066219
10.0000065441
10.000006445
10.0000063866
10.0000062915
10.0000062562
10.0000061607
10.0000061466
10.0000060425
10.0000060378
10.0000059236
10.0000000169
10.0000002131
10.0000004019
10.0000005759
10.0000007452
10.0000009106
10.0000010716
10.0000012278
10.0000013787
10.0000015238
10.0000016626
10.000001795
10.0000019214
10.0000020415
10.0000021565
10.0000022656
10.0000023708
10.0000024703
10.0000025673
10.0000026575
10.0000027477
10.000002828
10.0000029132
10.0000029818
10.0000030653
10.0000031183
10.0000032077
10.0000032359
10.0000033484
10.0000033298
10.0000035046
10.0000033847
10.000003715
10.0000033556
10.0000040686
10.0000031204
10.0000047771
10.0000023698
10.0000063333
10.0000003776
10.0000098166
9.99999563081
10.0000172884
9.99998551682
10.0000318129
9.99996691648
10.000055832
9.99993923726
10.0000866179
9.99990993479
10.0001111351
9.99989707525
10.0001082542
9.99992028831
10.0000667646
9.99997039863
10.0000260707
9.99998791431
10.0000082288
10.0000390998
10.0000179139