/*--------------------------------*- C++ -*----------------------------------*\
  =========                 |
  \\      /  F ield         | OpenFOAM: The Open Source CFD Toolbox
   \\    /   O peration     | Website:  https://openfoam.org
    \\  /    A nd           | Version:  7
     \\/     M anipulation  |
\*---------------------------------------------------------------------------*/
FoamFile
{
    version     2.0;
    format      ascii;
    class       surfaceScalarField;
    location    "2280";
    object      phi;
}
// * * * * * * * * * * * * * * * * * * * * * * * * * * * * * * * * * * * * * //

dimensions      [0 3 -1 0 0 0 0];

internalField   nonuniform List<scalar> 
16192
(
6.9292792626e-10
2.4457207374e-10
4.93573264246e-10
1.99354659896e-10
3.64834703676e-10
1.28738558101e-10
2.82241930645e-10
8.25927702105e-11
2.27599098298e-10
5.46428291331e-11
1.89963497683e-10
3.76355972784e-11
1.62993255504e-10
2.69702388759e-11
1.42976239732e-10
2.00170125887e-11
1.27678505384e-10
1.52977313121e-11
1.15707817461e-10
1.19706850802e-11
1.06163855599e-10
9.54395922051e-12
9.8443137603e-11
7.72071560087e-12
9.21275291624e-11
6.31560629137e-12
8.6918629487e-11
5.20889781999e-12
8.25979317763e-11
4.32069614055e-12
7.90018667523e-11
3.59606378874e-12
7.60056922833e-11
2.99617355143e-12
7.35127968914e-11
2.49289484302e-12
7.14474110559e-11
2.06538562793e-12
6.97495226845e-11
1.69788855675e-12
6.83712537613e-11
1.37826946313e-12
6.72742293392e-11
1.09702536827e-12
6.6427634244e-11
8.46596397986e-13
6.58067569506e-11
6.2087900459e-13
6.53918838905e-11
4.14875118246e-13
6.51674512545e-11
2.24435093716e-13
6.51213876654e-11
4.60663736651e-14
6.52446015425e-11
-1.23210711469e-13
6.55305771678e-11
-2.85972161521e-13
6.59750549097e-11
-4.44473922334e-13
6.65757760541e-11
-6.00717059719e-13
6.73322773407e-11
-7.56496873148e-13
6.8245720921e-11
-9.13438933477e-13
6.93187494715e-11
-1.07302359665e-12
7.05553546246e-11
-1.2365999882e-12
7.19607492949e-11
-1.40538920713e-12
7.35412313053e-11
-1.58047634135e-12
7.53040270983e-11
-1.76278981318e-12
7.725709994e-11
-1.95306663631e-12
7.94089077981e-11
-2.15180130254e-12
8.17680911466e-11
-2.35917651928e-12
8.43430721795e-11
-2.57497378579e-12
8.71415431505e-11
-2.79846337533e-12
9.01698257988e-11
-3.02827454411e-12
9.34320847957e-11
-3.2622504515e-12
9.6929389946e-11
-3.49729599588e-12
1.00658632742e-10
-3.72923310704e-12
1.04611326994e-10
-3.95268386613e-12
1.08772346815e-10
-4.16100883344e-12
1.1311869019e-10
-4.34633164431e-12
1.17618384505e-10
-4.49968198586e-12
1.22229680058e-10
-4.61128253492e-12
1.26900686907e-10
-4.67099336422e-12
1.31569608456e-10
-4.66890759578e-12
1.36165693296e-10
-4.59607075953e-12
1.4061098114e-10
-4.44527375091e-12
1.44822845611e-10
-4.21185083357e-12
1.48717254538e-10
-3.89439596229e-12
1.52212562136e-10
-3.49529585459e-12
1.55233540741e-10
-3.02096832381e-12
1.5771525605e-10
-2.48170701891e-12
1.59606343665e-10
-1.89108147091e-12
1.60871278426e-10
-1.2649311748e-12
1.61491377002e-10
-6.20097555891e-13
1.614644939e-10
2.68812873979e-14
1.60803613578e-10
6.6087579749e-13
1.59534724294e-10
1.26888189984e-12
1.57694409369e-10
1.84030492419e-12
1.55327512014e-10
2.36688472314e-12
1.52485108051e-10
2.84238909173e-12
1.49222858522e-10
3.26223256875e-12
1.4559969209e-10
3.62314791219e-12
1.41676688808e-10
3.9229834645e-12
1.37516022134e-10
4.16064612472e-12
1.33179838601e-10
4.3361625084e-12
1.28729018748e-10
4.45079884281e-12
1.24221833807e-10
4.50716410456e-12
1.19712585239e-10
4.509228259e-12
1.15250352718e-10
4.46221277118e-12
1.10877985236e-10
4.37234850639e-12
1.06631436222e-10
4.24653073417e-12
1.02539494186e-10
4.0919245602e-12
9.86238985245e-11
3.91557884626e-12
9.48997848898e-11
3.72409752345e-12
9.13763715569e-11
3.52339775431e-12
8.80577918388e-11
3.31856469124e-12
8.4943981778e-11
3.11379541763e-12
8.20315524941e-11
2.91241504227e-12
7.93145951314e-11
2.71694337695e-12
7.67853895094e-11
2.52919192096e-12
7.44350021438e-11
2.35037383434e-12
7.22537742296e-11
2.18121459661e-12
7.02317060804e-11
2.0220549617e-12
6.83587511646e-11
1.87294191579e-12
6.66250326709e-11
1.73370562555e-12
6.50209974318e-11
1.60402256873e-12
6.35375191824e-11
1.48346574383e-12
6.21659631732e-11
1.37154373689e-12
6.08982208355e-11
1.26773028248e-12
5.97267228601e-11
1.17148620206e-12
5.86444361872e-11
1.08227517667e-12
5.76448501916e-11
9.99574833343e-13
5.67219551717e-11
9.22884194153e-13
5.58702162157e-11
8.51728512155e-13
5.50845439749e-11
7.85662185503e-13
5.43602639167e-11
7.24270423801e-13
5.36930845865e-11
6.67170126135e-13
5.30790654028e-11
6.14010428382e-13
5.25145838288e-11
5.6447327838e-13
5.19963015863e-11
5.18274411805e-13
5.15211291134e-11
4.7516511935e-13
5.10861869872e-11
4.34935242311e-13
5.06887625916e-11
3.97417994708e-13
5.03262593074e-11
3.62497347277e-13
4.99961347415e-11
3.30119107303e-13
4.96958225018e-11
3.00307229827e-13
4.94226301296e-11
2.73187826092e-13
4.91736014756e-11
2.49024533403e-13
4.894532648e-11
2.28271317632e-13
4.87336707156e-11
2.11652486311e-13
4.85333812838e-11
2.00286577799e-13
4.8337496896e-11
1.95881919606e-13
4.81364456471e-11
2.01049206044e-13
4.79166505018e-11
2.19793498433e-13
4.76584297294e-11
2.58219560637e-13
4.73333264786e-11
3.25102407479e-13
4.69032804136e-11
4.30045501664e-13
5.51755768596e-13
9.53413701564e-10
2.28658370735e-10
8.59644109838e-10
2.93124246476e-10
7.45074046212e-10
2.43308615914e-10
6.41848001952e-10
1.85818807949e-10
5.56595024165e-10
1.39895799991e-10
4.88115304064e-10
1.06115310432e-10
4.33389190414e-10
8.16963457542e-11
3.89465899209e-10
6.39402973044e-11
3.53933327602e-10
5.083029677e-11
3.24935868968e-10
4.09681379676e-11
3.01074610072e-10
3.34052128121e-11
2.81297625127e-10
2.74976957426e-11
2.64809327736e-10
2.28038994089e-11
2.51002217623e-10
1.90160042448e-11
2.39407304405e-10
1.5915606276e-11
2.29658522863e-10
1.33448429055e-11
2.21467191327e-10
1.11875033271e-11
2.14603565389e-10
9.35651973101e-12
2.08883389615e-10
7.78556105787e-12
2.04157985348e-10
6.42329322537e-12
2.00306859905e-10
5.22939603277e-12
1.97232132839e-10
4.1717543168e-12
1.94854285691e-10
3.22444615136e-12
1.93108887903e-10
2.36628014284e-12
1.91944050144e-10
1.57971692448e-12
1.91318426636e-10
8.50063360706e-13
1.91199634883e-10
1.64863538602e-13
1.91562996375e-10
-4.86566130183e-13
1.92390523158e-10
-1.11349227837e-12
1.93670095247e-10
-1.72403874332e-12
1.95394784536e-10
-2.32539855399e-12
1.97562288822e-10
-2.92399282137e-12
2.00174443493e-10
-3.52558479809e-12
2.03236783565e-10
-4.13535436342e-12
2.06758128261e-10
-4.75793494281e-12
2.10750162267e-10
-5.39741298831e-12
2.15226984471e-10
-6.05728788138e-12
2.20204594833e-10
-6.74038899431e-12
2.2570028499e-10
-7.44874511898e-12
2.31731897354e-10
-8.18340138987e-12
2.38316912543e-10
-8.94417882593e-12
2.45471326281e-10
-9.72937389916e-12
2.53208276243e-10
-1.05353989489e-11
2.61536388303e-10
-1.13563712948e-11
2.70457822461e-10
-1.21836683485e-11
2.79966023906e-10
-1.30054800686e-11
2.9004321573e-10
-1.3806406435e-11
3.00657718187e-10
-1.45671665675e-11
3.11761232793e-10
-1.52645024609e-11
3.2328629449e-10
-1.58713710767e-11
3.35144151516e-10
-1.63575156036e-11
3.47223380151e-10
-1.66904866876e-11
3.59389554833e-10
-1.683714281e-11
3.714862739e-10
-1.67656009427e-11
3.83337769182e-10
-1.6447540383e-11
3.94753217715e-10
-1.58606971813e-11
4.05532719175e-10
-1.49913284931e-11
4.15474723629e-10
-1.38363785616e-11
4.24384485724e-10
-1.2405038856e-11
4.32082914317e-10
-1.07193811978e-11
4.38415007365e-10
-8.8137884134e-12
4.43256989413e-10
-6.73305633819e-12
4.46521356741e-10
-4.52929623289e-12
4.48159322365e-10
-2.25806595714e-12
4.48160575254e-10
2.56203922253e-14
4.46550720197e-10
2.2707177195e-12
4.43387107027e-10
4.43247685467e-12
4.38753870559e-10
6.47351844614e-12
4.32756886658e-10
8.36384128036e-12
4.25519126222e-10
1.00801184327e-11
4.17176603323e-10
1.16047212291e-11
4.07874881167e-10
1.29248335326e-11
3.97765950282e-10
1.40318762246e-11
3.87005248802e-10
1.49213087222e-11
3.75748629834e-10
1.55927424258e-11
3.64149186323e-10
1.60502037681e-11
3.52353973342e-10
1.63023393157e-11
3.40500794107e-10
1.63623709114e-11
3.28715289824e-10
1.62476817677e-11
3.17108586353e-10
1.59790181299e-11
3.05775692701e-10
1.55793919031e-11
2.94794750794e-10
1.50728353439e-11
2.84227122613e-10
1.44831770875e-11
2.74118208502e-10
1.38329828006e-11
2.64498826075e-10
1.31427522502e-11
2.55386957246e-10
1.24304064013e-11
2.46789676237e-10
1.17110499331e-11
2.38705102621e-10
1.09969627235e-11
2.31124260428e-10
1.02977600491e-11
2.240327665e-10
9.62066071337e-12
2.17412304676e-10
8.97081081378e-12
2.11241872011e-10
8.35162271977e-12
2.05498801189e-10
7.76510149454e-12
2.00159577424e-10
7.2121416903e-12
1.9520047325e-10
6.69278609608e-12
1.90598028592e-10
6.20644387831e-12
1.86329401783e-10
5.75206957182e-12
1.82372616506e-10
5.32830648013e-12
1.7870672554e-10
4.93359918846e-12
1.7531191017e-10
4.56628006664e-12
1.72169529923e-10
4.22463450502e-12
1.6926213538e-10
3.90694911661e-12
1.66573453379e-10
3.61154662573e-12
1.64088352493e-10
3.33681057738e-12
1.6179279414e-10
3.08120249516e-12
1.59673773661e-10
2.84327367837e-12
1.5771925395e-10
2.621673453e-12
1.55918093402e-10
2.41515545733e-12
1.5425996872e-10
2.22258332195e-12
1.52735292304e-10
2.0429370781e-12
1.51335122999e-10
1.87532157195e-12
1.50051067919e-10
1.71897836124e-12
1.48875172123e-10
1.57330272097e-12
1.47799791401e-10
1.4378678752e-12
1.46817442141e-10
1.31245904218e-12
1.45920620067e-10
1.19712081944e-12
1.45101577799e-10
1.09222244084e-12
1.44352048418e-10
9.98547058928e-13
1.43662900801e-10
9.17412868662e-13
1.43023712259e-10
8.50835719682e-13
1.42422251631e-10
8.01742657297e-13
1.41843890895e-10
7.74238839656e-13
1.41271037797e-10
7.73899225932e-13
1.40682878397e-10
8.07950503574e-13
1.40056239774e-10
8.84856412652e-13
1.39369661776e-10
1.01167918034e-12
1.38616878108e-10
1.18282854295e-12
1.33925502531e-12
9.76222474418e-10
1.89935893851e-10
9.62949590588e-10
3.06397123022e-10
9.05978802881e-10
3.00279395982e-10
8.33470697155e-10
2.5832690593e-10
7.6042211461e-10
2.12944374603e-10
6.93248877402e-10
1.73288539755e-10
6.34026883623e-10
1.40918331819e-10
5.82865392802e-10
1.1510178068e-10
5.39085352124e-10
9.46103303018e-11
5.01768377557e-10
7.8285105763e-11
4.69995254049e-10
6.51783299391e-11
4.42937715646e-10
5.45552282285e-11
4.19883913078e-10
4.58576965299e-11
4.00235892851e-10
3.86640195698e-11
3.83496804394e-10
3.26546903712e-11
3.69255681006e-10
2.75859625449e-11
3.57173010642e-10
2.32701705381e-11
3.46968204918e-10
1.95613229692e-11
3.38409157578e-10
1.63446065445e-11
3.31303722334e-10
1.35287273182e-11
3.25492824999e-10
1.10402928659e-11
3.20844918367e-10
8.81966116294e-12
3.17251518759e-10
6.81784661943e-12
3.14623607466e-10
4.99419300504e-12
3.12888719821e-10
3.3146067609e-12
3.11988581933e-10
1.75020412153e-12
3.11877182032e-10
2.7626689115e-13
3.12519188093e-10
-1.12856810002e-12
3.13888637028e-10
-2.48293659953e-12
3.15967840002e-10
-3.80323651723e-12
3.18746453636e-10
-5.10400652577e-12
3.22220674956e-10
-6.39820794348e-12
3.26392520527e-10
-7.69742376239e-12
3.31269155183e-10
-9.0119819153e-12
3.36862233787e-10
-1.03510060631e-11
3.4318722147e-10
-1.17223926973e-11
3.50262653084e-10
-1.31327111358e-11
3.58109292738e-10
-1.45870197618e-11
3.66749148157e-10
-1.60885912095e-11
3.76204294725e-10
-1.76385380125e-11
3.86495459132e-10
-1.92353327353e-11
3.97640316418e-10
-2.08742199309e-11
4.09651455726e-10
-2.25465262938e-11
4.22533984659e-10
-2.42388873264e-11
4.36282758827e-10
-2.59324287229e-11
4.50879258411e-10
-2.76019647317e-11
4.66288175236e-10
-2.92153072728e-11
4.8245383707e-10
-3.07328111304e-11
4.99296663648e-10
-3.21073105979e-11
5.16709930298e-10
-3.32846179566e-11
5.34557183488e-10
-3.42047479085e-11
5.52670708777e-10
-3.4803989941e-11
5.70851462013e-10
-3.50178732427e-11
5.88870841272e-10
-3.47849567824e-11
6.06474576019e-10
-3.40512517005e-11
6.23388861496e-10
-3.27749595853e-11
6.39328663213e-10
-3.09311083089e-11
6.54007887991e-10
-2.85155831196e-11
6.67150856222e-10
-2.55479894448e-11
6.78504252082e-10
-2.20727624814e-11
6.87848501675e-10
-1.81580272818e-11
6.95007434559e-10
-1.38919826331e-11
6.99855191785e-10
-9.37705154202e-12
7.0231971081e-10
-4.72258775262e-12
7.02382661694e-10
-3.7338225054e-14
7.00076294488e-10
4.57707244963e-12
6.95478096008e-10
9.03065806936e-12
6.88704305743e-10
1.32472871134e-11
6.79903196556e-10
1.71649247612e-11
6.69248739718e-10
2.07345461858e-11
6.5693491805e-10
2.39185109217e-11
6.43170666903e-10
2.66890507165e-11
6.28175240811e-10
2.90272669476e-11
6.12173748057e-10
3.09227655665e-11
5.95392634541e-10
3.23738199563e-11
5.78055024988e-10
3.33877779245e-11
5.60375987602e-10
3.39813421348e-11
5.42557944105e-10
3.41803810828e-11
5.24786536983e-10
3.40190568239e-11
5.07227278769e-10
3.35382457323e-11
4.90023231501e-10
3.27834098693e-11
4.73293841128e-10
3.18021977754e-11
4.57134906485e-10
3.06420849175e-11
4.41619544838e-10
2.93483187404e-11
4.26799933671e-10
2.79623385631e-11
4.12709579495e-10
2.65207365364e-11
3.99365869491e-10
2.50547364792e-11
3.867726995e-10
2.35901098167e-11
3.74923017171e-10
2.21474198556e-11
3.63801171697e-10
2.07424840475e-11
3.53385004052e-10
1.93869565693e-11
3.43647650156e-10
1.80889550204e-11
3.34559053803e-10
1.6853676462e-11
3.26087206047e-10
1.56839683405e-11
3.18199136243e-10
1.45808350325e-11
3.10861686799e-10
1.35438727775e-11
3.04042103126e-10
1.25716330136e-11
2.9770847051e-10
1.16619192673e-11
2.91830025447e-10
1.0812024836e-11
2.86377366792e-10
1.00189198022e-11
2.8132258729e-10
9.27939560493e-12
2.76639343503e-10
8.59017509099e-12
2.72302878021e-10
7.94799490996e-12
2.68290005688e-10
7.34966638182e-12
2.64579072419e-10
6.79211993011e-12
2.61149893507e-10
6.27243748637e-12
2.57983676073e-10
5.78787653635e-12
2.5506292896e-10
5.33588898829e-12
2.52371361819e-10
4.91413767132e-12
2.49893773887e-10
4.52051300484e-12
2.47615931893e-10
4.15315236701e-12
2.45524435195e-10
3.81046464459e-12
2.43606565523e-10
3.49116277823e-12
2.41850117269e-10
3.19430727956e-12
2.40243203925e-10
2.91936431418e-12
2.38774035224e-10
2.66628217603e-12
2.3743066055e-10
2.43559051116e-12
2.36200675596e-10
2.22852608958e-12
2.35070895863e-10
2.04718737624e-12
2.34027012691e-10
1.89471430509e-12
2.3305327564e-10
1.77547579244e-12
2.3213229838e-10
1.69521280938e-12
2.31245191995e-10
1.661002985e-12
2.3037242761e-10
1.68071285433e-12
2.29496173554e-10
1.76110895368e-12
2.2860537647e-10
1.90247522344e-12
2.27703950939e-10
2.08425343024e-12
2.23063877617e-12
9.71741061786e-10
1.55694828964e-10
9.86567414574e-10
2.91570761523e-10
9.67910605962e-10
3.18936196023e-10
9.27388874563e-10
2.98848628346e-10
8.76861248139e-10
2.63471991726e-10
8.23856256501e-10
2.26293522083e-10
7.72530614246e-10
1.92243964913e-10
7.24923741353e-10
1.62708644643e-10
6.81854650941e-10
1.37679412062e-10
6.4347847898e-10
1.16661269399e-10
6.09612209926e-10
9.90445910327e-11
5.79918451264e-10
8.42489793402e-11
5.54005742947e-10
7.17703977396e-11
5.31481082541e-10
6.11886733543e-11
5.11975659806e-10
5.2160106997e-11
4.95155895425e-10
4.44057213689e-11
4.8072664871e-10
3.76994122645e-11
4.68430439973e-10
3.18575273193e-11
4.58044809057e-10
2.67302336834e-11
4.4937895662e-10
2.21945766121e-11
4.42270267047e-10
1.81489799264e-11
4.3658100862e-10
1.45089177232e-11
4.32195339906e-10
1.12035140965e-11
4.29016663169e-10
8.1728691437e-12
4.26965319324e-10
5.3659506162e-12
4.25976597693e-10
2.73892637212e-12
4.25999023702e-10
2.53842071589e-13
4.26992885628e-10
-2.12242827409e-12
4.28928958852e-10
-4.41900755671e-12
4.31787395632e-10
-6.66167052411e-12
4.35556742113e-10
-8.87334977975e-12
4.40233048081e-10
-1.10745102366e-11
4.45819035082e-10
-1.328340669e-11
4.52323289008e-10
-1.5516231367e-11
4.59759440849e-10
-1.77871530658e-11
4.68145298205e-10
-2.01082448312e-11
4.77501886157e-10
-2.24892935021e-11
4.87852353888e-10
-2.49374814963e-11
4.99220698894e-10
-2.74569298022e-11
5.11630259135e-10
-3.00480913488e-11
5.25101921108e-10
-3.27069872767e-11
5.3965199498e-10
-3.54242857372e-11
5.55289713335e-10
-3.81842358896e-11
5.72014325287e-10
-4.09634896947e-11
5.89811780047e-10
-4.37298729996e-11
6.08651031834e-10
-4.64412049951e-11
6.28480047906e-10
-4.90443107055e-11
6.49221670042e-10
-5.1474419385e-11
6.70769559062e-10
-5.36551844528e-11
6.92984541247e-10
-5.5499583615e-11
7.15691756511e-10
-5.69119453245e-11
7.38679069268e-10
-5.77912835648e-11
7.61697217156e-10
-5.80360009042e-11
7.84462128826e-10
-5.75498473594e-11
8.06659725101e-10
-5.62488264319e-11
8.27953340141e-10
-5.40685530956e-11
8.4799366963e-10
-5.09714169275e-11
8.66430893279e-10
-4.69527872172e-11
8.82928329152e-10
-4.20454078511e-11
8.9717667483e-10
-3.63210934597e-11
9.08907613194e-10
-2.98889543917e-11
9.17905416125e-10
-2.2889778254e-11
9.24015285538e-10
-1.54869180023e-11
9.27147598789e-10
-7.85490261315e-12
9.27277896074e-10
-1.6764180829e-13
9.24443167345e-10
7.41179025052e-12
9.18735534696e-10
1.47382752674e-11
9.10294596439e-10
2.16882056943e-11
8.99299509982e-10
2.81599876943e-11
8.85961517159e-10
3.40725122172e-11
8.70517192176e-10
3.93628064858e-11
8.53222366312e-10
4.39838453026e-11
8.34346491839e-10
4.79031089902e-11
8.14167150265e-10
5.11020742803e-11
7.92964462996e-10
5.35764744992e-11
7.71015308859e-10
5.53368999802e-11
7.48587444321e-10
5.64091755626e-11
7.25933804657e-10
5.68339908757e-11
7.03287372549e-10
5.66654603996e-11
6.80857007211e-10
5.59685839491e-11
6.58824531198e-10
5.48158601099e-11
6.37343215889e-10
5.32834886059e-11
6.16537634128e-10
5.14476433447e-11
5.9650470761e-10
4.93812229551e-11
5.7731568564e-10
4.71513390861e-11
5.59018759714e-10
4.4817641751e-11
5.41642029756e-10
4.24314463041e-11
5.25196581095e-10
4.00355388271e-11
5.09679485918e-10
3.76644957442e-11
4.95076600922e-10
3.53453500614e-11
4.81365082583e-10
3.30984561565e-11
4.68515583138e-10
3.09384359288e-11
4.56494119635e-10
2.88751216095e-11
4.45263629725e-10
2.69144400958e-11
4.3478523962e-10
2.50592071836e-11
4.25019276894e-10
2.33098177925e-11
4.15926062322e-10
2.16648301408e-11
4.07466514932e-10
2.01214495341e-11
3.99602601494e-10
1.86759215057e-11
3.92297658876e-10
1.73238460665e-11
3.85516613517e-10
1.60604250614e-11
3.79226119012e-10
1.4880654198e-11
3.73394628896e-10
1.37794701669e-11
3.67992418856e-10
1.27518621449e-11
3.62991569485e-10
1.17929556329e-11
3.58365918434e-10
1.08980755119e-11
3.54090988474e-10
1.00627941293e-11
3.501438963e-10
9.28296947614e-12
3.46503245145e-10
8.55477782902e-12
3.43149003013e-10
7.87474483738e-12
3.40062367062e-10
7.23977871642e-12
3.37225613687e-10
6.64720911343e-12
3.3462193308e-10
6.09483516838e-12
3.32235246489e-10
5.58098632912e-12
3.30050004512e-10
5.104599412e-12
3.28050965418e-10
4.66531503119e-12
3.26222954904e-10
4.26359540727e-12
3.24550613113e-10
3.90086285347e-12
3.23018143682e-10
3.57965235194e-12
3.21609094769e-10
3.30375930392e-12
3.20306228738e-10
3.07833843779e-12
3.19091580092e-10
2.90985857592e-12
3.17946868355e-10
2.80571233613e-12
3.16854521275e-10
2.77305801073e-12
3.15799634203e-10
2.81599460254e-12
3.1477293608e-10
2.92917240849e-12
3.13772947265e-10
3.08424174765e-12
3.20618504782e-12
9.63914525868e-10
1.29280298331e-10
9.87579662426e-10
2.67905614335e-10
9.89522105124e-10
3.16993742753e-10
9.71829412223e-10
3.165413108e-10
9.41448893559e-10
2.9385249981e-10
9.04427892385e-10
2.63314512714e-10
8.64962214258e-10
2.31709632649e-10
8.25700065879e-10
2.01970782854e-10
7.8819857401e-10
1.75180894026e-10
7.5329738008e-10
1.51562453734e-10
7.2138325755e-10
1.30958704312e-10
6.92566945968e-10
1.13065282063e-10
6.6679771572e-10
9.75396195479e-11
6.43936045606e-10
8.40503354937e-11
6.23798886105e-10
7.22972590113e-11
6.06187279623e-10
6.20173208957e-11
5.90902763913e-10
5.29839215639e-11
5.77756721125e-10
4.50035642774e-11
5.66575341429e-10
3.79116081357e-11
5.5720190063e-10
3.15680127808e-11
5.49497426492e-10
2.5853450043e-11
5.43340429411e-10
2.0665911409e-11
5.38626117987e-10
1.59178227355e-11
5.35265358508e-10
1.15336264566e-11
5.33183534104e-10
7.44777344345e-12
5.32319394582e-10
3.60306491029e-12
5.32623946047e-10
-5.07098271898e-14
5.34059402234e-10
-3.55788434948e-12
5.36598202027e-10
-6.95780674046e-12
5.40222095289e-10
-1.02855626898e-11
5.44921278353e-10
-1.35725313124e-11
5.50693562063e-10
-1.68467919857e-11
5.57543549467e-10
-2.01333917561e-11
5.65481796879e-10
-2.345447606e-11
5.74523927253e-10
-2.68292803813e-11
5.84689661531e-10
-3.02739756907e-11
5.9600172859e-10
-3.38013568019e-11
6.08484611027e-10
-3.74203597885e-11
6.22163079332e-10
-4.11353935708e-11
6.37060464881e-10
-4.49454718903e-11
6.53196620219e-10
-4.88431371015e-11
6.70585518065e-10
-5.28131774515e-11
6.89232446543e-10
-5.68311575525e-11
7.09130773457e-10
-6.08618089718e-11
7.30258275949e-10
-6.48573669479e-11
7.52573070622e-10
-6.87559900643e-11
7.76009232099e-10
-7.24804614298e-11
8.00472260493e-10
-7.59374357292e-11
8.25834645047e-10
-7.90175555974e-11
8.51931870089e-10
-8.15967937804e-11
8.78559303179e-10
-8.35393620796e-11
9.05470477937e-10
-8.47024405253e-11
9.32377306131e-10
-8.49428099972e-11
9.58952707294e-10
-8.41252283044e-11
9.84836014404e-10
-8.21321126039e-11
1.00964131459e-09
-7.88738320692e-11
1.03296863254e-09
-7.42987140641e-11
1.05441758615e-09
-6.8401721086e-11
1.07360283288e-09
-6.12306367301e-11
1.09017027874e-09
-5.28885241181e-11
1.10381266966e-09
-4.35313334848e-11
1.11428295771e-09
-3.33600584158e-11
1.12140391155e-09
-2.26078683306e-11
1.12507293592e-09
-1.15239280635e-11
1.12526189616e-09
-3.56607831603e-13
1.12201264584e-09
1.06610301673e-11
1.11542961755e-09
2.13212886476e-11
1.1056710188e-09
3.14467853541e-11
1.09293990086e-09
4.08910827626e-11
1.07747586363e-09
4.9536523403e-11
1.05954764154e-09
5.72910000186e-11
1.03944645003e-09
6.40850065334e-11
1.01747977933e-09
6.98697484006e-11
9.93965275408e-10
7.46165466273e-11
9.69224420026e-10
7.83172985737e-11
9.43575899492e-10
8.09853899663e-11
9.17328787073e-10
8.26562584969e-11
8.90775887204e-10
8.3386862571e-11
8.64187720285e-10
8.32536005401e-11
8.37807626951e-10
8.23486519539e-11
8.11848345334e-10
8.0775117777e-11
7.86490217939e-10
7.86415933633e-11
7.61880976669e-10
7.6056863138e-11
7.38136890516e-10
7.31252886671e-11
7.15344962416e-10
6.99432476084e-11
6.93565833101e-10
6.65967522193e-11
6.7283707155e-10
6.31601895832e-11
6.53176585528e-10
5.96960070471e-11
6.34585950253e-10
5.6255113569e-11
6.17053517629e-10
5.2877765519e-11
6.00557222914e-10
4.95947339179e-11
5.85067049449e-10
4.64285926262e-11
5.70547143096e-10
4.33950113531e-11
5.56957589659e-10
4.05039770893e-11
5.44255881166e-10
3.77608994038e-11
5.3239810409e-10
3.51675788015e-11
5.21339884743e-10
3.27230336544e-11
5.11037127027e-10
3.04241916959e-11
5.01446575262e-10
2.82664580368e-11
4.9252623191e-10
2.6244174554e-11
4.84235656232e-10
2.43509862883e-11
4.76536166414e-10
2.25801300215e-11
4.6939096406e-10
2.09246590229e-11
4.62765196797e-10
1.93776164435e-11
4.56625971749e-10
1.79321682804e-11
4.50942330135e-10
1.65817053141e-11
4.45685190941e-10
1.53199221245e-11
4.40827269716e-10
1.41408801255e-11
4.36342976913e-10
1.30390606959e-11
4.32208298727e-10
1.20094137252e-11
4.28400662363e-10
1.10474064274e-11
4.24898786639e-10
1.01490768201e-11
4.21682518412e-10
9.31109601102e-12
4.18732654996e-10
8.53084297365e-12
4.16030753293e-10
7.8064949491e-12
4.13558927437e-10
7.13713529733e-12
4.11299639501e-10
6.52287831239e-12
4.09235492072e-10
5.96500577689e-12
4.07349039066e-10
5.46610135602e-12
4.056226424e-10
5.03015243501e-12
4.0403841917e-10
4.66255858644e-12
4.0257834642e-10
4.36992867196e-12
4.01224615383e-10
4.15944114492e-12
3.99960333056e-10
4.03733850994e-12
3.98770575099e-10
4.00575114037e-12
3.976433114e-10
4.05643518599e-12
3.96567975866e-10
4.15957680872e-12
4.24801792968e-12
9.57514420712e-10
1.09265872631e-10
9.82419774336e-10
2.43000249553e-10
9.9476518562e-10
3.04648320683e-10
9.91813837854e-10
3.19492647411e-10
9.76718340282e-10
3.08947985906e-10
9.53585930654e-10
2.86446910852e-10
9.25872779396e-10
2.59422772558e-10
8.96115609104e-10
2.31727942012e-10
8.66054948606e-10
2.05241543647e-10
8.36828197759e-10
1.80789194005e-10
8.09141709468e-10
1.5864518236e-10
7.83403846536e-10
1.38803135124e-10
7.59822072988e-10
1.2112138363e-10
7.38471742631e-10
1.0540065683e-10
7.19343965123e-10
9.14250279696e-11
7.02378473355e-10
7.8982804621e-11
6.87485924879e-10
6.78764625258e-11
6.74562843781e-10
5.79266384179e-11
6.63501478605e-10
4.89729669236e-11
6.54196172909e-10
4.08733126797e-11
6.46547359681e-10
3.3502258065e-11
6.40463948917e-10
2.67493175722e-11
6.35864638047e-10
2.05171295982e-11
6.32678508528e-10
1.47197525662e-11
6.30845155849e-10
9.28112328953e-12
6.30314520172e-10
4.13369832479e-12
6.3104652871e-10
-7.82720089089e-13
6.33010618545e-10
-5.52197538223e-12
6.3618518724e-10
-1.01323761478e-11
6.40557000498e-10
-1.46573761921e-11
6.46120560541e-10
-1.91360911749e-11
6.52877436002e-10
-2.36036668577e-11
6.60835544056e-10
-2.80914988515e-11
6.70008368527e-10
-3.26272992106e-11
6.80414090854e-10
-3.72350010557e-11
6.92074605302e-10
-4.19344881419e-11
7.05014383769e-10
-4.67411329356e-11
7.1925915078e-10
-5.16651240911e-11
7.3483432407e-10
-5.67105637574e-11
7.51763173002e-10
-6.18743172506e-11
7.7006464466e-10
-6.71446046639e-11
7.89750809143e-10
-7.24993372072e-11
8.10823880895e-10
-7.7904223858e-11
8.33272786411e-10
-8.33107081854e-11
8.57069271158e-10
-8.86538444234e-11
8.82163575872e-10
-9.38502863837e-11
9.08479766012e-10
-9.87966419306e-11
9.35910873101e-10
-1.0336853178e-10
9.64314100901e-10
-1.07420770853e-10
9.93506459912e-10
-1.10789138618e-10
1.0232613049e-09
-1.13294191218e-10
1.05330634112e-09
-1.14747459194e-10
1.08332370246e-09
-1.14960152171e-10
1.11295266153e-09
-1.13754166775e-10
1.1417953912e-09
-1.10974820595e-10
1.1694259741e-09
-1.06504392682e-10
1.19540258431e-09
-1.00275302055e-10
1.21928247469e-09
-9.22815901179e-11
1.24063907986e-09
-8.25872223308e-11
1.25908014927e-09
-7.13295766519e-11
1.27426536683e-09
-5.87165377282e-11
1.28592155349e-09
-4.50162360148e-11
1.29385356162e-09
-3.05398721553e-11
1.29794955001e-09
-1.56199171792e-11
1.29818038333e-09
-5.87446954537e-13
1.29459406143e-09
1.42473412863e-11
1.28730691584e-09
2.86084187055e-11
1.27649349526e-09
4.22601860419e-11
1.26237664627e-09
5.50079079829e-11
1.24521859031e-09
6.66945523974e-11
1.22531314907e-09
7.7196411879e-11
1.20297886638e-09
8.64192582901e-11
1.17855259364e-09
9.429598943e-11
1.15238307809e-09
1.00786030421e-10
1.12482418943e-09
1.05876156008e-10
1.09622764068e-09
1.09581908462e-10
1.06693535775e-09
1.11948512446e-10
1.03727193524e-09
1.13050257567e-10
1.0075377798e-09
1.12987729999e-10
9.7800353303e-10
1.11882874286e-10
9.48906198786e-10
1.09872429057e-10
9.204471468e-10
1.07100623762e-10
8.92791909831e-10
1.03712079738e-10
8.66071500309e-10
9.98456788997e-11
8.40384869601e-10
9.56298599277e-11
8.15802113873e-10
9.11794903182e-11
7.92368068727e-10
8.65942177007e-11
7.70106004594e-10
8.19580546357e-11
7.49021211965e-10
7.73398900166e-11
7.29104337553e-10
7.27946240387e-11
7.10334391033e-10
6.83646647576e-11
6.92681386911e-10
6.40815812496e-11
6.76108617008e-10
5.99677659054e-11
6.60574569805e-10
5.60380090958e-11
6.4603452466e-10
5.23009295062e-11
6.32441855325e-10
4.87602332832e-11
6.19749078883e-10
4.54157954537e-11
6.07908685877e-10
4.22645703194e-11
5.9687378482e-10
3.93013450054e-11
5.86598591421e-10
3.65193542122e-11
5.77038789069e-10
3.39107752826e-11
5.68151783788e-10
3.14671223771e-11
5.59896873218e-10
2.91795571334e-11
5.52235346194e-10
2.70391315117e-11
5.45130526486e-10
2.50369765626e-11
5.38547771827e-10
2.31644491055e-11
5.3245443707e-10
2.14132465874e-11
5.26819808476e-10
1.97754990169e-11
5.21615014442e-10
1.82438456239e-11
5.16812916707e-10
1.68115029568e-11
5.12387984922e-10
1.54723303099e-11
5.08316156708e-10
1.42208977297e-11
5.04574684807e-10
1.30525611939e-11
5.01141972822e-10
1.19635488131e-11
4.97997401402e-10
1.09510607803e-11
4.95121147722e-10
1.00133839223e-11
4.9249400306e-10
9.15001842723e-12
4.90097196274e-10
8.36180849297e-12
4.87912235609e-10
7.65105839862e-12
4.85920787423e-10
7.02159741145e-12
4.84104617946e-10
6.47872524066e-12
4.824456302e-10
6.02891395867e-12
4.80926024285e-10
5.67904496648e-12
4.79528567259e-10
5.43479382679e-12
4.78236798709e-10
5.2975184068e-12
4.77034507395e-10
5.25872569632e-12
4.75902695063e-10
5.29138876451e-12
5.33957496708e-12
9.52888909512e-10
9.38769570415e-11
9.76336592565e-10
2.19552554194e-10
9.93498302302e-10
2.87486598813e-10
9.99669423694e-10
3.13321514092e-10
9.95485185627e-10
3.13132211936e-10
9.83359563259e-10
2.98572521227e-10
9.65837360671e-10
2.76944963312e-10
9.45052295904e-10
2.52512995168e-10
9.22635499559e-10
2.27658328642e-10
8.99772708223e-10
2.03651974288e-10
8.77295243688e-10
1.81122636175e-10
8.55766195017e-10
1.60332173442e-10
8.35551441336e-10
1.41336127359e-10
8.16874875369e-10
1.24077213278e-10
7.99860094595e-10
1.08439799693e-10
7.84561333361e-10
9.42815572986e-11
7.70986140076e-10
8.14516477767e-11
7.59111843908e-10
6.98009270971e-11
7.48897405619e-10
5.91873982869e-11
7.40291866462e-10
4.9478845489e-11
7.33240305733e-10
4.05538130338e-11
7.27687983527e-10
3.23016346086e-11
7.23583167636e-10
2.46219409111e-11
7.20879010423e-10
1.74239057865e-11
7.19534742243e-10
1.06253880504e-11
7.19516374424e-10
4.1520632825e-12
7.20797050431e-10
-2.06339842088e-12
7.23357136831e-10
-8.08206359451e-12
7.27184131725e-10
-1.39593723681e-11
7.32272432226e-10
-1.9745677566e-11
7.3862298403e-10
-2.54866434256e-11
7.4624282736e-10
-3.12235102404e-11
7.55144541713e-10
-3.69932128884e-11
7.65345582388e-10
-4.28283392224e-11
7.76867493593e-10
-4.87569112627e-11
7.89734975737e-10
-5.48019689594e-11
8.03974777708e-10
-6.09809332392e-11
8.19614378761e-10
-6.73047231129e-11
8.36680418891e-10
-7.37766014514e-11
8.55196831849e-10
-8.03907273092e-11
8.75182631579e-10
-8.71304009511e-11
8.96649302267e-10
-9.39660038168e-11
9.19597745575e-10
-1.00852662336e-10
9.44014748727e-10
-1.07727705631e-10
9.69868956898e-10
-1.14508045871e-10
9.97106367274e-10
-1.21087688874e-10
1.02564541488e-09
-1.27335680336e-10