/*--------------------------------*- C++ -*----------------------------------*\
  =========                 |
  \\      /  F ield         | OpenFOAM: The Open Source CFD Toolbox
   \\    /   O peration     | Website:  https://openfoam.org
    \\  /    A nd           | Version:  7
     \\/     M anipulation  |
\*---------------------------------------------------------------------------*/
FoamFile
{
    version     2.0;
    format      ascii;
    class       volVectorField;
    location    "2280";
    object      U;
}
// * * * * * * * * * * * * * * * * * * * * * * * * * * * * * * * * * * * * * //

dimensions      [0 1 -1 0 0 0 0];

internalField   nonuniform List<vector> 
8192
(
(0.00104347387281 0.000156526127193 0)
(0.000759360761924 0.000127586982333 0)
(0.00054938109947 8.23926771848e-05 0)
(0.000414129045965 5.28593729347e-05 0)
(0.000326298258524 3.49714106452e-05 0)
(0.000267240061428 2.40867822582e-05 0)
(0.00022589232204 1.72609528805e-05 0)
(0.000195820476951 1.28108880568e-05 0)
(0.000173219036874 9.79054803973e-06 0)
(0.000155767246621 7.66123845133e-06 0)
(0.000141997870758 6.10813390113e-06 0)
(0.000130948475649 4.94125798456e-06 0)
(0.00012196522673 4.04198802648e-06 0)
(0.000114589541536 3.3336946048e-06 0)
(0.000108490599208 2.76524552995e-06 0)
(0.000103423871058 2.3014808248e-06 0)
(9.92048377828e-05 1.91755107292e-06 0)
(9.56918330718e-05 1.59545269953e-06 0)
(9.27745330863e-05 1.32184680187e-06 0)
(9.03660375939e-05 1.08664867632e-06 0)
(8.83972969253e-05 8.82092456402e-07 0)
(8.68131091843e-05 7.0209623569e-07 0)
(8.55691926933e-05 5.41821694711e-07 0)
(8.46300103645e-05 3.97362562937e-07 0)
(8.39671301383e-05 2.65520075677e-07 0)
(8.35579744928e-05 1.43638459979e-07 0)
(8.33848569088e-05 2.94824791457e-08 0)
(8.34342330931e-05 -7.88548553399e-08 0)
(8.36961143746e-05 -1.83022183374e-07 0)
(8.41636045296e-05 -2.84463310294e-07 0)
(8.48325318168e-05 -3.8445891822e-07 0)
(8.57011541726e-05 -4.84157998815e-07 0)
(8.67699188875e-05 -5.84600917425e-07 0)
(8.80412610512e-05 -6.86735101855e-07 0)
(8.95194266215e-05 -7.91423992448e-07 0)
(9.12103065084e-05 -8.99449092563e-07 0)
(9.31212675841e-05 -1.01150485847e-06 0)
(9.52609653783e-05 -1.12818548043e-06 0)
(9.76391213045e-05 -1.24996264724e-06 0)
(0.000100266244952 -1.37715283362e-06 0)
(0.000103153279325 -1.50987297234e-06 0)
(0.000106311144529 -1.6479832229e-06 0)
(0.000109750153811 -1.79101656021e-06 0)
(0.000113479276128 -1.93809570823e-06 0)
(0.00011750522278 -2.08784028896e-06 0)
(0.000121831343835 -2.23826943737e-06 0)
(0.00012645633452 -2.38670918851e-06 0)
(0.000131372774231 -2.52971767433e-06 0)
(0.000136565551238 -2.6630456534e-06 0)
(0.000142010263683 -2.78165225236e-06 0)
(0.000147671727804 -2.87979647095e-06 0)
(0.00015350276132 -2.95122082235e-06 0)
(0.000159443434858 -2.9894357531e-06 0)
(0.000165420989033 -2.9881008613e-06 0)
(0.000171350593122 -2.9414852861e-06 0)
(0.000177137071639 -2.84497520058e-06 0)
(0.000182677649121 -2.69558453348e-06 0)
(0.000187865664095 -2.49241341587e-06 0)
(0.000192595082671 -2.23698934694e-06 0)
(0.000196765505841 -1.93341972724e-06 0)
(0.000200287229947 -1.5882924921e-06 0)
(0.000203085823818 -1.21029214138e-06 0)
(0.000205105678138 -8.09555951874e-07 0)
(0.000206312099473 -3.9686243577e-07 0)
(0.000206691757377 1.72040239347e-08 0)
(0.000206251588786 4.22960510394e-07 0)
(0.000205016536238 8.12084415894e-07 0)
(0.000203026645545 1.17779515148e-06 0)
(0.000200334029685 1.51480622281e-06 0)
(0.000197000076841 1.81912901871e-06 0)
(0.000193093098606 2.087828844e-06 0)
(0.000188686432392 2.3188146638e-06 0)
(0.000183856883775 2.51070941728e-06 0)
(0.000178683335003 2.66281351982e-06 0)
(0.00017324535087 2.77514400537e-06 0)
(0.000167621668703 2.8485112594e-06 0)
(0.000161888545635 2.88458502692e-06 0)
(0.000156118028189 2.88590608576e-06 0)
(0.000150376280293 2.85581617355e-06 0)
(0.000144722136291 2.79830304409e-06 0)
(0.000139206029733 2.71777966987e-06 0)
(0.000133869395461 2.61883171853e-06 0)
(0.000128744571335 2.50597046161e-06 0)
(0.000123855157385 2.38342241501e-06 0)
(0.000119216740126 2.25497456276e-06 0)
(0.000114837864573 2.12388140239e-06 0)
(0.000110721135115 1.99282906728e-06 0)
(0.000106864341934 1.86394562705e-06 0)
(0.00010326153448 1.73884376125e-06 0)
(9.99039901701e-05 1.61868282941e-06 0)
(9.67810506581e-05 1.50423925398e-06 0)
(9.3880816879e-05 1.39597734183e-06 0)
(9.11907073984e-05 1.29411517549e-06 0)
(8.86978926368e-05 1.19868282611e-06 0)
(8.63896216547e-05 1.10957160035e-06 0)
(8.42534592657e-05 1.02657444398e-06 0)
(8.22774506331e-05 9.49418076054e-07 0)
(8.04502287076e-05 8.77787991608e-07 0)
(7.87610777656e-05 8.11347380787e-07 0)
(7.71999639652e-05 7.49751169319e-07 0)
(7.57575417903e-05 6.92656113066e-07 0)
(7.44251432825e-05 6.39727893339e-07 0)
(7.31947554326e-05 5.90645884258e-07 0)
(7.20589896879e-05 5.45106247779e-07 0)
(7.1011046522e-05 5.02823798722e-07 0)
(7.00446770506e-05 4.63533071233e-07 0)
(6.91541430421e-05 4.26988880726e-07 0)
(6.83341759931e-05 3.92966674164e-07 0)
(6.75799355082e-05 3.61262898163e-07 0)
(6.68869666657e-05 3.31695623555e-07 0)
(6.62511556478e-05 3.04105676384e-07 0)
(6.56686823043e-05 2.78358555079e-07 0)
(6.51359677304e-05 2.54347516613e-07 0)
(6.46496140154e-05 2.31998302257e-07 0)
(6.42063321913e-05 2.11276228674e-07 0)
(6.38028526357e-05 1.92196627089e-07 0)
(6.34358096841e-05 1.74840208699e-07 0)
(6.31015882273e-05 1.59375701378e-07 0)
(6.27961138916e-05 1.46093643285e-07 0)
(6.25145582052e-05 1.35457591239e-07 0)
(6.22509132796e-05 1.28183409792e-07 0)
(6.19973620351e-05 1.25364428548e-07 0)
(6.17433232276e-05 1.28671491868e-07 0)
(6.14739815353e-05 1.40667838997e-07 0)
(6.11680513479e-05 1.65260518807e-07 0)
(6.07947239731e-05 2.08065540787e-07 0)
(6.0311428411e-05 2.75229121065e-07 0)
(5.96830750258e-05 3.53123691901e-07 0)
(0.001210184769 0.000302867484464 0)
(0.0011603569993 0.000315186500078 0)
(0.00102701961987 0.00023811019137 0)
(0.000887630110824 0.000171783410022 0)
(0.000767003536715 0.00012450472264 0)
(0.000668614610067 9.20005809349e-05 0)
(0.000589762876465 6.95466141633e-05 0)
(0.000526627257358 5.37326783316e-05 0)
(0.000475775505159 4.23219379725e-05 0)
(0.000434476285805 3.38808467506e-05 0)
(0.000400646706586 2.74874701009e-05 0)
(0.000372718230528 2.25397832598e-05 0)
(0.000349508449832 1.86364836482e-05 0)
(0.00033011938903 1.55039373215e-05 0)
(0.000313862094098 1.29512335466e-05 0)
(0.000300202129451 1.08421802843e-05 0)
(0.000288720457081 9.07755320225e-06 0)
(0.000279085284298 7.58362532737e-06 0)
(0.000271031651203 6.30460587891e-06 0)
(0.000264346479976 5.19755634055e-06 0)
(0.000258857500962 4.22890591737e-06 0)
(0.000254424955356 3.37201899844e-06 0)
(0.000250935307859 2.60546723158e-06 0)
(0.0002482964311 1.91178185436e-06 0)
(0.00024643388035 1.27653890734e-06 0)
(0.000245287985139 6.8767901083e-07 0)
(0.000244811559372 1.34995143851e-07 0)
(0.000244968084005 -3.90257178657e-07 0)
(0.000245730252501 -8.95657241531e-07 0)
(0.000247078795779 -1.38784810602e-06 0)
(0.000249001523061 -1.87271399277e-06 0)
(0.000251492526949 -2.35551340449e-06 0)
(0.000254551508682 -2.8409751882e-06 0)
(0.000258183185318 -3.33336189444e-06 0)
(0.000262396743569 -3.83650235585e-06 0)
(0.000267205305938 -4.35379340508e-06 0)
(0.000272625373912 -4.88816910255e-06 0)
(0.000278676210754 -5.44203443679e-06 0)
(0.000285379123087 -6.01715952339e-06 0)
(0.000292756596701 -6.61452972314e-06 0)
(0.000300831238335 -7.23414742093e-06 0)
(0.000309624472847 -7.87478251837e-06 0)
(0.000319154945615 -8.53367188751e-06 0)
(0.000329436585309 -9.20617333692e-06 0)
(0.000340476294889 -9.88538803197e-06 0)
(0.000352271261675 -1.05617766813e-05 0)
(0.000364805913367 -1.12228093069e-05 0)
(0.000378048597707 -1.18527042776e-05 0)
(0.000391948128628 -1.24323272284e-05 0)
(0.000406430417461 -1.29393297415e-05 0)
(0.000421395485444 -1.33486064572e-05 0)
(0.000436715220267 -1.36331323024e-05 0)
(0.000452232278389 -1.37652071515e-05 0)
(0.000467760530389 -1.37180854646e-05 0)
(0.000483087387572 -1.34679111312e-05 0)
(0.000497978231615 -1.29958213966e-05 0)
(0.00051218299961 -1.22900347691e-05 0)
(0.000525444763394 -1.13476956953e-05 0)
(0.000537509893986 -1.01762142148e-05 0)
(0.000548139136026 -8.79382369383e-06 0)
(0.000557118669877 -7.22911707668e-06 0)
(0.000564270077938 -5.51944819782e-06 0)
(0.000569458141538 -3.70830554092e-06 0)
(0.000572595634628 -1.84202464834e-06 0)
(0.000573644734476 3.36010749589e-08 0)
(0.000572615229089 1.87621985088e-06 0)
(0.000569560209423 3.64886960289e-06 0)
(0.000564570225655 5.32084695701e-06 0)
(0.000557766884619 6.86766464224e-06 0)
(0.000549296648243 8.27040481563e-06 0)
(0.000539325266909 9.5148504306e-06 0)
(0.000528032950073 1.05907081247e-05 0)
(0.000515610132127 1.14911102011e-05 0)
(0.000502253567414 1.22124511021e-05 0)
(0.000488162482327 1.27544991579e-05 0)
(0.00047353460234 1.3120641671e-05 0)
(0.000458562022185 1.3318082189e-05 0)
(0.000443427051167 1.33578234691e-05 0)
(0.000428298293716 1.32543325049e-05 0)
(0.000413327280753 1.30248746472e-05 0)
(0.000398645938594 1.26885904879e-05 0)
(0.000384365083837 1.22654463386e-05 0)
(0.00037057399898 1.17752037976e-05 0)
(0.000357341011914 1.12365314074e-05 0)
(0.00034471490213 1.06663360029e-05 0)
(0.000332726901326 1.00793414992e-05 0)
(0.00032139304543 9.48790102449e-06 0)
(0.00031071665847 8.90200177009e-06 0)
(0.000300690792352 8.3294101927e-06 0)
(0.000291300497234 7.77590568597e-06 0)
(0.000282524845553 7.2455581748e-06 0)
(0.00027433867308 6.74101588248e-06 0)
(0.000266714030848 6.263780132e-06 0)
(0.000259621362312 5.8144535079e-06 0)
(0.000253030432432 5.39295470185e-06 0)
(0.000246911041179 4.9986985261e-06 0)
(0.00024123355544 4.63074260202e-06 0)
(0.000235969291705 4.28790413889e-06 0)
(0.000231090778909 3.9688508614e-06 0)
(0.000226571926854 3.67217041197e-06 0)
(0.000222388121659 3.39642219628e-06 0)
(0.000218516265794 3.14017532797e-06 0)
(0.000214934776805 2.90203572473e-06 0)
(0.000211623555758 2.6806650173e-06 0)
(0.000208563933845 2.47479339563e-06 0)
(0.000205738603393 2.28322822539e-06 0)
(0.000203131537671 2.10485989065e-06 0)
(0.000200727902305 1.93866616685e-06 0)
(0.000198513959758 1.78371622421e-06 0)
(0.000196476967055 1.63917535354e-06 0)
(0.000194605065794 1.50431148243e-06 0)
(0.000192887162187 1.37850470627e-06 0)
(0.000191312793627 1.26126125803e-06 0)
(0.000189871976655 1.15223374239e-06 0)
(0.000188555029467 1.05125001567e-06 0)
(0.000187352359813 9.58353951531e-07 0)
(0.000186254206634 8.73862570839e-07 0)
(0.000185250320779 7.98445819092e-07 0)
(0.0001843295675 7.33237879228e-07 0)
(0.000183479432358 6.79992451836e-07 0)
(0.000182685416889 6.41298710462e-07 0)
(0.000181930331217 6.20877285928e-07 0)
(0.000181193554363 6.23966996465e-07 0)
(0.000180450506364 6.57756161284e-07 0)
(0.000179673035629 7.31568622905e-07 0)
(0.000178832576992 8.55540216204e-07 0)
(0.000177911385526 1.03223938855e-06 0)
(0.000176925604269 1.2102469081e-06 0)
(0.00122478238363 0.000267900329335 0)
(0.0012410701216 0.000383693676479 0)
(0.00119611417182 0.000347896327613 0)
(0.00111324768002 0.000284253256883 0)
(0.00102009139953 0.00022581771174 0)
(0.000930349434887 0.00017881846412 0)
(0.000849456487056 0.000142473393647 0)
(0.000778811056912 0.00011458692991 0)
(0.000718048476753 9.30820013259e-05 0)
(0.000666146386996 7.63220759876e-05 0)
(0.000621928724228 6.30934673608e-05 0)
(0.000584277100604 5.25138713415e-05 0)
(0.000552205842383 4.39434214008e-05 0)
(0.000524876675794 3.69152152413e-05 0)
(0.000501588926237 3.10849898542e-05 0)
(0.000481761590656 2.61957154882e-05 0)
(0.000464914362655 2.20529112737e-05 0)
(0.000450650377959 1.85074193281e-05 0)
(0.000438641511998 1.54433072655e-05 0)
(0.000428616243143 1.27692931479e-05 0)
(0.000420349790293 1.04126008951e-05 0)
(0.000413656155754 8.31450590703e-06 0)
(0.000408381719761 6.42706737331e-06 0)
(0.000404400080784 4.71070281465e-06 0)
(0.000401607889463 3.13236715864e-06 0)
(0.000399921473122 1.66417118863e-06 0)
(0.000399274088937 2.82323475041e-07 0)
(0.00039961367688 -1.03368590733e-06 0)
(0.000400901008077 -2.30171448186e-06 0)
(0.000403108145299 -3.53745616675e-06 0)
(0.000406217147928 -4.75481925104e-06 0)
(0.000410218962299 -5.9662084895e-06 0)
(0.000415112445109 -7.1827254787e-06 0)
(0.000420903472454 -8.41429521838e-06 0)
(0.000427604088941 -9.66972224375e-06 0)
(0.000435231651364 -1.09566756388e-05 0)
(0.000443807919714 -1.2281599371e-05 0)
(0.000453358045326 -1.36495416039e-05 0)
(0.000463909402173 -1.50638952502e-05 0)
(0.000475490203445 -1.65260412175e-05 0)
(0.000488127842469 -1.80348873992e-05 0)
(0.000501846896352 -1.95863000512e-05 0)
(0.000516666734172 -2.11724321553e-05 0)
(0.000532598681847 -2.27809655176e-05 0)
(0.000549642715831 -2.43943021257e-05 0)
(0.000567783691032 -2.59887646722e-05 0)
(0.000586987157534 -2.7533896773e-05 0)
(0.000607194887876 -2.89919857267e-05 0)
(0.00062832032046 -3.03179603577e-05 0)
(0.000650244220126 -3.14598329813e-05 0)
(0.000672810952823 -3.23598486477e-05 0)
(0.000695825851049 -3.29564650423e-05 0)
(0.000719054189305 -3.31872102737e-05 0)
(0.000742222274102 -3.29923569441e-05 0)
(0.000765021067066 -3.23192269335e-05 0)
(0.000787112600009 -3.11268203306e-05 0)
(0.000808139215814 -2.93903595533e-05 0)
(0.000827735392771 -2.7105255476e-05 0)
(0.000845541596296 -2.42899381125e-05 0)
(0.000861219269314 -2.09869719547e-05 0)
(0.000874465762405 -1.72619620449e-05 0)
(0.00088502779919 -1.32000249416e-05 0)
(0.00089271208086 -8.90006257594e-06 0)
(0.000897391937661 -4.46761837424e-06 0)
(0.000899009518403 -7.49941301035e-09 0)
(0.000897573731956 4.38258570825e-06 0)
(0.000893154809917 8.61640635138e-06 0)
(0.000885876737121 1.26213155581e-05 0)
(0.000875908801472 1.63384102666e-05 0)
(0.000863457239216 1.97213853558e-05 0)
(0.000848757540972 2.27348685765e-05 0)
(0.00083206757437 2.53528859195e-05 0)
(0.000813661380937 2.75578516302e-05 0)
(0.000793823352875 2.93402075448e-05 0)
(0.000772842484863 3.06985999246e-05 0)
(0.000751006502099 3.16403082833e-05 0)
(0.000728595848058 3.21815561283e-05 0)
(0.000705877716293 3.23473612763e-05 0)
(0.000683100467896 3.21707126986e-05 0)
(0.000660488842081 3.16910488718e-05 0)
(0.000638240326573 3.09521931344e-05 0)
(0.000616522926483 3.00000211964e-05 0)
(0.000595474398472 2.88801676832e-05 0)
(0.000575202848846 2.76360329862e-05 0)
(0.000555788466245 2.63072581205e-05 0)
(0.000537286088426 2.49287314801e-05 0)
(0.000519728287351 2.35301033039e-05 0)
(0.000503128684154 2.21357264257e-05 0)
(0.000487485258669 2.0764915139e-05 0)
(0.000472783480875 1.9432412647e-05 0)
(0.000458999152479 1.81489711252e-05 0)
(0.000446100898693 1.69219697537e-05 0)
(0.000434052290534 1.57560178922e-05 0)
(0.000422813606304 1.46535104197e-05 0)
(0.000412343259065 1.36151175223e-05 0)
(0.000402598926747 1.26402026597e-05 0)
(0.000393538425552 1.17271696546e-05 0)
(0.000385120367127 1.08737444784e-05 0)
(0.000377304637412 1.00771993757e-05 0)
(0.000370052731032 9.33452791605e-06 0)
(0.000363327970612 8.64257927036e-06 0)
(0.000357095635708 7.99815949286e-06 0)
(0.000351323021776 7.39810658284e-06 0)
(0.000345979445574 6.83934525389e-06 0)
(0.000341036209988 6.31892635218e-06 0)
(0.000336466538192 5.83405514543e-06 0)
(0.000332245484531 5.38211199318e-06 0)
(0.000328349827221 4.9606684452e-06 0)
(0.000324757946098 4.56750143569e-06 0)
(0.000321449686852 4.20060805308e-06 0)
(0.000318406211699 3.85822332093e-06 0)
(0.000315609834936 3.53884352373e-06 0)
(0.000313043840459 3.24125791949e-06 0)
(0.000310692276987 2.96459209905e-06 0)
(0.000308539725564 2.70836694807e-06 0)
(0.000306571033056 2.4725779171e-06 0)
(0.000304771005296 2.25780028929e-06 0)
(0.000303124055133 2.06532681505e-06 0)
(0.000301613805734 1.89734415674e-06 0)
(0.000300222661474 1.75715201585e-06 0)
(0.000298931384532 1.64941980783e-06 0)
(0.000297718767373 1.58044905538e-06 0)
(0.00029656159384 1.558337415e-06 0)
(0.000295435276547 1.59274454906e-06 0)
(0.000294315904744 1.69341783445e-06 0)
(0.000293184992015 1.86505881842e-06 0)
(0.000292037969542 2.09093246284e-06 0)
(0.000290890571418 2.28473203295e-06 0)
(0.00122191427954 0.000221203662602 0)
(0.00125331742487 0.000382699446109 0)
(0.00125086593314 0.000396297978883 0)
(0.00121299166754 0.000356592341936 0)
(0.00115472007853 0.000304906474451 0)
(0.00108845920297 0.000255732519576 0)
(0.00102168759728 0.000213223869908 0)
(0.000958370787583 0.000177798672207 0)
(0.000900338171068 0.000148665435113 0)
(0.00084821320315 0.000124765680104 0)
(0.0008019780409 0.000105102669422 0)
(0.000761299623162 8.88346928439e-05 0)
(0.000725711484295 7.52819803325e-05 0)
(0.000694711568312 6.39057234714e-05 0)
(0.000667812315102 5.42814703156e-05 0)
(0.000644564195348 4.60746777048e-05 0)
(0.000624564828246 3.90205329937e-05 0)
(0.000607460536757 3.29080641846e-05 0)
(0.00059294415938 2.75678977459e-05 0)
(0.000580751210034 2.28629145154e-05 0)
(0.000570655503147 1.8681134587e-05 0)
(0.000562464816427 1.49302904872e-05 0)
(0.000556016863057 1.15336708582e-05 0)
(0.000551175681968 8.4269197752e-06 0)
(0.000547828468795 5.55555672134e-06 0)
(0.000545882826891 2.87304351594e-06 0)
(0.000545264397693 3.39269736153e-07 0)
(0.000545914821971 -2.08063767943e-06 0)
(0.000547789980467 -4.41724425999e-06 0)
(0.00055085846687 -6.69754050646e-06 0)
(0.000555100248157 -8.94550803553e-06 0)
(0.000560505465724 -1.11825396353e-05 0)
(0.000567073333224 -1.34277314895e-05 0)
(0.000574811087417 -1.56980565007e-05 0)
(0.000583732947108 -1.80084218425e-05 0)
(0.000593859032994 -2.03716080183e-05 0)
(0.000605214197992 -2.27980829683e-05 0)
(0.000617826713629 -2.52956808052e-05 0)
(0.00063172675378 -2.78691334475e-05 0)
(0.000646944613138 -3.05194427913e-05 0)
(0.000663508595356 -3.32430848077e-05 0)
(0.000681442506297 -3.60310436276e-05 0)
(0.000700762693322 -3.88676877974e-05 0)
(0.000721474584718 -4.17295212935e-05 0)
(0.000743568707414 -4.45838731024e-05 0)
(0.000767016199604 -4.73876286252e-05 0)
(0.000791763891034 -5.00861555062e-05 0)
(0.000817729099486 -5.26126275299e-05 0)
(0.000844794386627 -5.48879968324e-05 0)
(0.000872802624198 -5.68218890058e-05 0)
(0.000901552830565 -5.83146836691e-05 0)
(0.000930797328499 -5.92609750437e-05 0)
(0.000960240823312 -5.9554479454e-05 0)
(0.000989541981428 -5.90942746508e-05 0)
(0.00101831798651 -5.77920500048e-05 0)
(0.00104615236176 -5.55798481158e-05 0)
(0.00107260608625 -5.24176161513e-05 0)
(0.00109723172026 -4.82997570155e-05 0)
(0.00111958990236 -4.32597742694e-05 0)
(0.00113926720255 -3.73720678023e-05 0)
(0.00115589394434 -3.0750068271e-05 0)
(0.00116916033876 -2.35403269678e-05 0)
(0.00117882924906 -1.59129405083e-05 0)
(0.00118474424597 -8.04959383409e-06 0)
(0.00118683231671 -1.3118722134e-07 0)
(0.00118510148059 7.6728721281e-06 0)
(0.00117963436931 1.52121173355e-05 0)
(0.00117057928393 2.23587153969e-05 0)
(0.00115814022811 2.90079439715e-05 0)
(0.00114256705737 3.50765173779e-05 0)
(0.00112414637397 4.05000431408e-05 0)
(0.00110319331743 4.52306534522e-05 0)
(0.00108004406922 4.92354406001e-05 0)
(0.00105504873095 5.2495897502e-05 0)
(0.00102856423249 5.50081884515e-05 0)
(0.00100094705399 5.6783793859e-05 0)
(0.000972545762035 5.78499313264e-05 0)
(0.000943693599346 5.82491980534e-05 0)
(0.000914701553412 5.80380910231e-05 0)
(0.000885852403047 5.72843709961e-05 0)
(0.000857396184582 5.60635327867e-05 0)
(0.000829547358136 5.44548392841e-05 0)
(0.000802483744011 5.25374260878e-05 0)
(0.000776347098712 5.03869066851e-05 0)
(0.00075124505168 4.80727536955e-05 0)
(0.000727254045026 4.56565621039e-05 0)
(0.000704422905261 4.31911569813e-05 0)
(0.000682776710945 4.0720415132e-05 0)
(0.000662320682889 3.82796259839e-05 0)
(0.000643043895578 3.58962138297e-05 0)
(0.000624922677443 3.35906641445e-05 0)
(0.000607923626061 3.13775302075e-05 0)
(0.000592006209775 2.92664307658e-05 0)
(0.00057712495959 2.72629813992e-05 0)
(0.000563231276381 2.53696270183e-05 0)
(0.000550274890569 2.35863619648e-05 0)
(0.000538205017098 2.19113364188e-05 0)
(0.000526971249442 2.0341356033e-05 0)
(0.000516524234513 1.88722856587e-05 0)
(0.000506816166637 1.74993701559e-05 0)
(0.000497801134332 1.62174852264e-05 0)
(0.000489435348819 1.5021330745e-05 0)
(0.000481677278661 1.39055776492e-05 0)
(0.000474487710561 1.28649782571e-05 0)
(0.000467829752538 1.18944483603e-05 0)
(0.000461668792268 1.09891283189e-05 0)
(0.000455972420421 1.0144429226e-05 0)
(0.000450710326256 9.35606941724e-06 0)
(0.000445854170525 8.62010592022e-06 0)
(0.000441377438821 7.93296501902e-06 0)
(0.000437255276848 7.29147589339e-06 0)
(0.000433464307679 6.69291120513e-06 0)
(0.000429982429931 6.13503868583e-06 0)
(0.000426788594924 5.61618790956e-06 0)
(0.00042386256064 5.13533678475e-06 0)
(0.000421184620755 4.69222221262e-06 0)
(0.000418735309006 4.2874789878e-06 0)
(0.000416495083531 3.92280892356e-06 0)
(0.000414444004349 3.60117742604e-06 0)
(0.000412561432609 3.32702310976e-06 0)
(0.000410825807045 3.10644110735e-06 0)
(0.000409214597651 2.94724568659e-06 0)
(0.000407704607006 2.85869780552e-06 0)
(0.000406272889363 2.85041335364e-06 0)
(0.000404898659505 2.92934627598e-06 0)
(0.000403566444981 3.09225448443e-06 0)
(0.000402269365341 3.30783691385e-06 0)
(0.000401005022753 3.47956724735e-06 0)
(0.00121690529656 0.000182384081469 0)
(0.00124895628051 0.000358064880549 0)
(0.00126534513123 0.000406995160816 0)
(0.0012552649711 0.000393849561053 0)
(0.0012244981157 0.000356687674583 0)
(0.001181361143 0.00031334914227 0)
(0.00113240966825 0.00027133030244 0)
(0.00108202385929 0.000233394833598 0)
(0.00103289512953 0.000200230595896 0)
(0.000986557410618 0.000171663182805 0)
(0.000943795608084 0.000147202109021 0)
(0.000904928130252 0.000126281127298 0)
(0.00086999338348 0.000108358411064 0)
(0.000838869607248 9.29529656627e-05 0)
(0.000811350356295 7.96527142453e-05 0)
(0.000787191146066 6.81107470493e-05 0)
(0.000766137627863 5.80373336502e-05 0)
(0.000747942070424 4.91910986219e-05 0)
(0.000732372520034 4.13707787642e-05 0)
(0.000719217434918 3.44080572115e-05 0)
(0.000708287569358 2.81615551804e-05 0)
(0.000699416227778 2.25118906446e-05 0)
(0.000692458590335 1.73576555725e-05 0)
(0.000687290544956 1.26121571842e-05 0)
(0.000683807291272 8.20078339817e-06 0)
(0.000681921874359 4.05887442074e-06 0)
(0.000681563738002 1.30004636416e-07 0)
(0.0006826773429 -3.63540007909e-06 0)
(0.000685220866727 -7.28116115019e-06 0)
(0.000689164990282 -1.08462292569e-05 0)
(0.000694491759131 -1.4365363899e-05 0)
(0.000701193497866 -1.78696334223e-05 0)
(0.000709271751379 -2.13867510055e-05 0)
(0.000718736221661 -2.49412527533e-05 0)
(0.000729603663444 -2.85545174061e-05 0)
(0.000741896696822 -3.2244621134e-05 0)
(0.000755642489678 -3.60260161945e-05 0)
(0.000770871257355 -3.99090184223e-05 0)
(0.00078761452183 -4.38990869588e-05 0)
(0.000805903068296 -4.7995880473e-05 0)
(0.000825764534464 -5.2192079602e-05 0)
(0.000847220568502 -5.64719764408e-05 0)
(0.000870283497349 -6.0809851803e-05 0)
(0.0008949524608 -6.51681911466e-05 0)
(0.00092120899162 -6.94958335664e-05 0)
(0.000949012061806 -7.3726204838e-05 0)
(0.000978292673742 -7.77758541666e-05 0)
(0.00100894815526 -8.15435872731e-05 0)
(0.00104083641955 -8.49105536321e-05 0)
(0.00107377056969 -8.7741681533e-05 0)
(0.00110751435089 -8.98888367386e-05 0)
(0.00114177905991 -9.11959834177e-05 0)
(0.0011762225818 -9.15064389769e-05 0)
(0.00121045120859 -9.06720484249e-05 0)
(0.00124402478189 -8.85638009829e-05 0)
(0.00127646549055 -8.50831265055e-05 0)
(0.00130727036616 -8.01728838346e-05 0)
(0.00133592717996 -7.3826885314e-05 0)
(0.00136193306818 -6.6096668532e-05 0)
(0.00138481479144 -5.70941552498e-05 0)
(0.00140414908698 -4.6988984241e-05 0)
(0.00141958120152 -3.59998954687e-05 0)
(0.00143083959633 -2.4380663253e-05 0)
(0.00143774518238 -1.24024516331e-05 0)
(0.00144021429254 -3.35519769532e-07 0)
(0.00143825570688 1.15666050674e-05 0)
(0.00143196304857 2.30781209056e-05 0)
(0.00142150440727 3.4006394271e-05 0)
(0.00140711098859 4.41926850924e-05 0)
(0.00138906608928 5.35097827969e-05 0)
(0.00136769504331 6.18584361629e-05 0)
(0.0013433562186 6.9164065175e-05 0)
(0.00131643278679 7.53746287301e-05 0)
(0.00128732483503 8.04599173809e-05 0)
(0.00125644140508 8.44120147667e-05 0)
(0.00122419220449 8.72462655658e-05 0)
(0.0011909789994 8.90018777981e-05 0)
(0.00115718699154 8.97413462059e-05 0)
(0.00112317670879 8.95481990014e-05 0)
(0.00108927702223 8.85230309779e-05 0)
(0.00105577982226 8.67782258476e-05 0)
(0.00102293668049 8.44320524603e-05 0)
(0.000990957564549 8.16028841489e-05 0)
(0.000960011434999 7.84041674382e-05 0)
(0.000930228385876 7.49405354845e-05 0)
(0.00090170290913 7.1305212141e-05 0)
(0.000874497858977 6.75786469679e-05 0)
(0.00084864874053 6.38281893595e-05 0)
(0.0008241680229 6.01085499605e-05 0)
(0.000801049259445 5.64627939714e-05 0)
(0.000779270873948 5.29236416476e-05 0)
(0.000758799534313 4.95148982752e-05 0)
(0.000739593083229 4.6252885096e-05 0)
(0.000721603028963 4.31477869985e-05 0)
(0.000704776621328 4.02048682159e-05 0)
(0.000689058550564 3.74255338202e-05 0)
(0.000674392312853 3.48082328289e-05 0)
(0.000660721287533 3.23492103872e-05 0)
(0.000647989569465 3.00431229073e-05 0)
(0.00063614259659 2.78835331971e-05 0)
(0.000625127608411 2.58633032638e-05 0)
(0.000614893966493 2.39749019005e-05 0)
(0.000605393363503 2.22106426815e-05 0)
(0.000596579942949 2.05628662966e-05 0)
(0.00058841034787 1.90240793045e-05 0)
(0.000580843713206 1.75870597286e-05 0)
(0.000573841613489 1.62449384025e-05 0)
(0.000567367974821 1.4991263745e-05 0)
(0.000561388957842 1.38200566559e-05 0)
(0.000555872816409 1.272586148e-05 0)
(0.000550789735098 1.1703798492e-05 0)
(0.000546111647361 1.07496229975e-05 0)
(0.000541812035232 9.85979595482e-06 0)
(0.000537865710981 9.03157075377e-06 0)
(0.000534248581305 8.2631003911e-06 0)
(0.000530937395667 7.55356821025e-06 0)
(0.00052790948284 6.90334318058e-06 0)
(0.000525142484207 6.31415592343e-06 0)
(0.000522614099928 5.78928237309e-06 0)
(0.000520301876138 5.33370351291e-06 0)
(0.000518183079405 4.95417409551e-06 0)
(0.000516234729978 4.65906383864e-06 0)
(0.000514433895554 4.45769822787e-06 0)
(0.000512758367001 4.35865377322e-06 0)
(0.000511187781219 4.36591727546e-06 0)
(0.000509704887359 4.47078886047e-06 0)
(0.00050829522385 4.63604387607e-06 0)
(0.000506940235947 4.7706899056e-06 0)
(0.00121280922926 0.000152669549416 0)
(0.00124155788483 0.000326979752888 0)
(0.00126539837437 0.000397850920599 0)
(0.00127141057502 0.000407061733255 0)
(0.00125986059401 0.000385792310858 0)
(0.0012353947334 0.000351847311082 0)
(0.00120285357443 0.000314324739332 0)
(0.00116607256864 0.000277567183914 0)
(0.00112778915693 0.000243470360111 0)
(0.00108984521367 0.000212705054553 0)
(0.00105342074063 0.00018534648747 0)
(0.00101922915584 0.000161195787 0)
(0.000987664588496 0.000139943042034 0)
(0.000958908041996 0.000121248635087 0)
(0.000933002052963 0.000104782263668 0)
(0.000909902360626 9.02400803307e-05 0)
(0.00088951321487 7.73506458174e-05 0)
(0.000871711211943 6.5875329725e-05 0)
(0.000856361166327 5.56061280379e-05 0)
(0.000843326496969 4.63624482947e-05 0)
(0.000832475860858 3.79876531891e-05 0)
(0.000823687237502 3.0345746548e-05 0)
(0.000816850295656 2.33183694936e-05 0)
(0.000811867613808 1.68021625746e-05 0)
(0.000808655145201 1.07064939091e-05 0)
(0.000807142192653 4.95152847045e-06 0)
(0.000807271071285 -5.33395146419e-07 0)
(0.000808996574243 -5.81111022829e-06 0)
(0.000812285315702 -1.09377170485e-05 0)
(0.000817115000152 -1.59634808845e-05 0)
(0.000823473639065 -2.09335183918e-05 0)
(0.000831358717788 -2.58882936598e-05 0)
(0.000840776307238 -3.08639299889e-05 0)
(0.000851740104053 -3.58923361732e-05 0)
(0.000864270374004 -4.10011401197e-05 0)
(0.00087839276554 -4.62134168528e-05 0)
(0.000894136953006 -5.1547193432e-05 0)
(0.000911535062111 -5.70147096829e-05 0)
(0.000930619823904 -6.26214126901e-05 0)
(0.000951422398126 -6.83646650502e-05 0)
(0.000973969803304 -7.42321547298e-05 0)
(0.000998281890434 -8.02000093816e-05 0)
(0.00102436780162 -8.62306441027e-05 0)
(0.00105222186708 -9.22704109806e-05 0)
(0.00108181891684 -9.82471752777e-05 0)
(0.0011131090221 -0.000104068016927 0)
(0.00114601173881 -0.000109617346151 0)
(0.00118041000903 -0.000114755819206 0)
(0.00121614398336 -0.000119320528928 0)
(0.00125300515892 -0.000123126996735 0)
(0.00129073136948 -0.000125973474111 0)
(0.00132900329345 -0.00012764793582 0)
(0.00136744322789 -0.000127937895788 0)
(0.00140561687295 -0.000126642812851 0)
(0.00144303875375 -0.000123588437247 0)
(0.0014791816738 -0.000118642063841 0)
(0.00151349027738 -0.000111727370316 0)
(0.00154539843776 -0.00010283731917 0)
(0.00157434979491 -9.2043429799e-05 0)
(0.00159982030664 -7.94995844928e-05 0)
(0.0016213411303 -6.54386375764e-05 0)
(0.00163851962901 -5.01608284356e-05 0)
(0.00165105607367 -3.4014553911e-05 0)
(0.00165875399144 -1.73720609554e-05 0)
(0.00166152315734 -6.0419506313e-07 0)
(0.00165937564464 1.59413577303e-05 0)
(0.00165241662545 3.1955012706e-05 0)
(0.0016408322631 4.71724616934e-05 0)
(0.00162487689057 6.13753540771e-05 0)
(0.00160486095141 7.43878885122e-05 0)
(0.0015811403132 8.60719436145e-05 0)
(0.00155410688989 9.6322729487e-05 0)
(0.00152418013441 0.000105066072212 0)
(0.00149179882991 0.000112257649311 0)
(0.00145741265122 0.000117883810932 0)
(0.00142147317127 0.000121963070994 0)
(0.001384424319 0.000124547053404 0)
(0.00134669266751 0.000125719756888 0)
(0.00130867821762 0.000125594451545 0)
(0.00127074644021 0.000124308176793 0)
(0.00123322222836 0.000122014429973 0)
(0.00119638614117 0.00011887501896 0)
(0.00116047299624 0.000115052123441 0)
(0.00112567258249 0.000110701419243 0)
(0.00109213207674 0.000105966788823 0)
(0.00105995966942 0.000100976795224 0)
(0.00102922891686 9.58428206617e-05 0)
(0.000999983406925 9.0658599477e-05 0)
(0.000972241418598 8.55008022948e-05 0)
(0.000946000351692 8.04303293169e-05 0)
(0.000921240786295 7.54940151523e-05 0)
(0.000897930097885 7.07265112805e-05 0)
(0.000876025602508 6.61521774454e-05 0)
(0.00085547723956 6.17868711585e-05 0)