/*--------------------------------*- C++ -*----------------------------------*\
  =========                 |
  \\      /  F ield         | OpenFOAM: The Open Source CFD Toolbox
   \\    /   O peration     | Website:  https://openfoam.org
    \\  /    A nd           | Version:  7
     \\/     M anipulation  |
\*---------------------------------------------------------------------------*/
FoamFile
{
    version     2.0;
    format      ascii;
    class       volScalarField;
    location    "1440";
    object      Ci;
}
// * * * * * * * * * * * * * * * * * * * * * * * * * * * * * * * * * * * * * //

dimensions      [0 -3 0 0 1 0 0];

internalField   nonuniform List<scalar> 
8192
(
9.9999999963
10.0000000129
10.0000000364
10.0000000682
10.0000001121
10.0000001651
10.00000022
10.0000002738
10.0000003249
10.0000003724
10.0000004161
10.0000004557
10.0000004914
10.0000005229
10.0000005502
10.000000573
10.0000005911
10.0000006039
10.0000006111
10.0000006118
10.0000006054
10.0000005903
10.0000005668
10.0000005345
10.000000494
10.0000004452
10.0000003886
10.0000003241
10.0000002524
10.0000001732
10.0000000867
9.99999999178
9.99999988916
9.99999977901
9.99999966265
9.99999954058
9.99999941441
9.99999928482
9.99999915367
9.99999902178
9.99999889122
9.99999876291
9.99999863906
9.99999852062
9.99999840977
9.99999830731
9.99999821525
9.99999813402
9.99999806529
9.99999800904
9.99999796659
9.9999979375
9.99999792294
9.99999792226
9.99999793668
9.9999979655
9.99999801008
9.99999806964
9.99999814564
9.99999823725
9.99999834602
9.99999847096
9.99999861325
9.99999877072
9.99999894248
9.99999912351
9.99999931002
9.99999949499
9.99999967429
9.99999984229
9.99999999722
10.0000001361
10.0000002592
10.0000003651
10.0000004551
10.0000005289
10.0000005885
10.0000006346
10.0000006701
10.0000006963
10.0000007162
10.0000007312
10.000000744
10.0000007557
10.0000007684
10.0000007827
10.0000008002
10.000000821
10.0000008462
10.0000008755
10.0000009093
10.0000009471
10.0000009888
10.0000010336
10.0000010812
10.0000011309
10.0000011831
10.0000012372
10.0000012933
10.0000013505
10.000001409
10.0000014676
10.0000015264
10.0000015844
10.0000016417
10.0000016974
10.0000017517
10.0000018039
10.0000018542
10.0000019021
10.0000019479
10.0000019913
10.0000020324
10.0000020711
10.0000021077
10.0000021419
10.0000021739
10.0000022037
10.0000022311
10.0000022558
10.0000022773
10.0000022945
10.0000023065
10.0000023121
10.0000023112
10.0000023056
10.0000022993
10.0000022959
10.0000000017
10.0000000214
10.0000000427
10.0000000687
10.0000001007
10.0000001382
10.0000001795
10.0000002227
10.0000002665
10.0000003095
10.0000003511
10.0000003906
10.0000004276
10.0000004616
10.0000004923
10.0000005192
10.000000542
10.00000056
10.0000005729
10.0000005799
10.0000005796
10.00000057
10.0000005521
10.000000526
10.0000004924
10.0000004511
10.0000004027
10.0000003472
10.0000002851
10.0000002164
10.000000141
10.0000000565
9.99999996472
9.99999986612
9.99999976228
9.9999996539
9.9999995427
9.99999942957
9.99999931639
9.99999920421
9.99999909504
9.99999899002
9.99999889117
9.99999879959
9.99999871712
9.99999864456
9.99999858337
9.99999853381
9.99999849673
9.99999847171
9.99999845898
9.99999845753
9.99999846712
9.99999848642
9.99999851502
9.99999855155
9.9999985957
9.9999986462
9.99999870302
9.99999876518
9.99999883301
9.99999890584
9.99999898406
9.9999990666
9.9999991529
9.99999924059
9.9999993279
9.99999941187
9.99999949108
9.99999956384
9.99999963032
9.99999969027
9.9999997448
9.99999979411
9.99999983941
9.99999988093
9.99999991995
9.99999995681
9.99999999287
10.0000000285
10.0000000649
10.0000001024
10.0000001418
10.0000001832
10.0000002273
10.0000002739
10.0000003235
10.0000003758
10.0000004311
10.000000489
10.0000005495
10.000000612
10.0000006764
10.0000007419
10.0000008083
10.0000008752
10.0000009436
10.0000010132
10.0000010841
10.0000011555
10.0000012273
10.0000012986
10.0000013693
10.0000014385
10.0000015062
10.0000015718
10.0000016353
10.0000016962
10.0000017546
10.0000018101
10.000001863
10.000001913
10.0000019603
10.0000020048
10.0000020467
10.000002086
10.0000021229
10.0000021571
10.0000021889
10.0000022178
10.0000022434
10.0000022648
10.000002281
10.000002291
10.0000022948
10.0000022945
10.0000022953
10.000002296
10.0000000028
10.0000000251
10.0000000454
10.0000000659
10.0000000895
10.0000001158
10.000000144
10.0000001736
10.0000002041
10.0000002348
10.0000002652
10.0000002948
10.0000003231
10.0000003496
10.0000003741
10.000000396
10.0000004149
10.0000004304
10.0000004422
10.0000004498
10.0000004528
10.0000004504
10.0000004425
10.0000004288
10.0000004097
10.0000003849
10.000000355
10.0000003198
10.00000028
10.0000002356
10.0000001873
10.0000001346
10.0000000785
10.000000019
9.99999995776
9.99999989461
9.99999983141
9.99999976823
9.9999997069
9.99999964761
9.99999959204
9.99999954047
9.9999994943
9.9999994537
9.99999941971
9.99999939215
9.9999993716
9.99999935737
9.99999934952
9.99999934683
9.99999934898
9.99999935437
9.99999936252
9.99999937177
9.99999938179
9.9999993911
9.99999939969
9.99999940637
9.99999941153
9.99999941433
9.9999994155
9.99999941449
9.99999941216
9.99999940777
9.99999940172
9.99999939253
9.99999937992
9.99999936227
9.99999933974
9.99999931189
9.99999928027
9.99999924567
9.99999921039
9.9999991756
9.99999914359
9.99999911541
9.99999909316
9.99999907767
9.99999907073
9.99999907278
9.99999908508
9.99999910753
9.99999914079
9.99999918424
9.99999923804
9.99999930121
9.99999937358
9.99999945395
9.99999954197
9.99999963629
9.99999973645
9.99999984104
9.99999994952
10.0000000605
10.0000001733
10.0000002866
10.0000003998
10.0000005119
10.0000006227
10.0000007312
10.0000008374
10.0000009405
10.0000010405
10.0000011368
10.0000012296
10.0000013182
10.0000014029
10.0000014834
10.0000015599
10.0000016322
10.0000017006
10.0000017649
10.0000018255
10.0000018823
10.0000019358
10.0000019858
10.0000020328
10.0000020766
10.0000021177
10.0000021557
10.0000021905
10.0000022214
10.0000022478
10.0000022684
10.0000022834
10.000002294
10.0000023076
10.0000023059
10.0000000027
10.0000000285
10.0000000493
10.0000000687
10.0000000888
10.00000011
10.0000001323
10.0000001549
10.0000001776
10.0000002006
10.0000002235
10.0000002462
10.0000002684
10.00000029
10.0000003106
10.00000033
10.000000348
10.0000003641
10.0000003783
10.0000003903
10.0000003999
10.0000004068
10.0000004109
10.0000004121
10.0000004106
10.000000406
10.0000003991
10.0000003893
10.0000003776
10.0000003634
10.0000003483
10.0000003307
10.0000003132
10.0000002937
10.0000002753
10.0000002555
10.0000002376
10.0000002192
10.0000002033
10.000000188
10.0000001752
10.0000001638
10.0000001548
10.0000001476
10.0000001423
10.0000001385
10.0000001361
10.0000001342
10.0000001326
10.0000001305
10.0000001273
10.0000001222
10.0000001148
10.0000001045
10.0000000911
10.0000000741
10.0000000535
10.0000000292
10.0000000011
9.9999999691
9.99999993337
9.99999989372
9.99999985019
9.99999980236
9.9999997498
9.99999969149
9.99999962648
9.99999955372
9.99999947299
9.99999938463
9.99999929009
9.99999919115
9.99999909025
9.99999898968
9.99999889207
9.99999879972
9.99999871523
9.99999864073
9.99999857847
9.99999853004
9.99999849698
9.99999848005
9.99999847992
9.9999984965
9.99999852971
9.99999857879
9.99999864311
9.99999872145
9.99999881279
9.99999891564
9.99999902877
9.99999915053
9.99999927959
9.99999941427
9.99999955329
9.999999695
9.99999983814
9.99999998121
10.0000001232
10.0000002629
10.0000003997
10.0000005327
10.0000006615
10.0000007855
10.0000009045
10.0000010181
10.0000011263
10.000001229
10.0000013262
10.000001418
10.0000015046
10.000001586
10.0000016627
10.0000017346
10.0000018021
10.0000018656
10.0000019252
10.0000019812
10.000002034
10.0000020835
10.00000213
10.0000021729
10.0000022121
10.0000022463
10.0000022768
10.0000023009
10.0000023356
10.0000023244
10.0000000041
10.0000000333
10.0000000567
10.0000000764
10.0000000951
10.0000001135
10.000000132
10.0000001512
10.0000001701
10.0000001889
10.0000002076
10.0000002265
10.0000002453
10.0000002642
10.000000283
10.0000003016
10.00000032
10.0000003379
10.0000003554
10.0000003722
10.0000003883
10.0000004036
10.0000004182
10.0000004316
10.0000004445
10.0000004559
10.0000004675
10.0000004769
10.0000004877
10.0000004953
10.0000005058
10.000000512
10.0000005229
10.0000005279
10.0000005393
10.0000005439
10.0000005554
10.0000005602
10.000000571
10.0000005764
10.0000005854
10.000000591
10.0000005977
10.0000006022
10.0000006062
10.0000006083
10.0000006089
10.0000006074
10.0000006038
10.0000005978
10.0000005893
10.0000005781
10.000000564
10.000000547
10.0000005271
10.0000005042
10.0000004785
10.0000004498
10.0000004182
10.0000003835
10.0000003454
10.0000003036
10.0000002576
10.0000002068
10.0000001501
10.0000000861
10.0000000133
9.99999993032
9.99999983652
9.99999973195
9.99999961784
9.99999949585
9.99999936835
9.99999923772
9.99999910677
9.99999897821
9.99999885508
9.99999874023
9.99999863658
9.99999854657
9.99999847247
9.99999841584
9.99999837799
9.99999835949
9.99999836067
9.99999838121
9.99999842063
9.99999847792
9.999998552
9.99999864137
9.99999874455
9.99999885976
9.99999898532
9.99999911932
9.99999926006
9.99999940571
9.99999955464
9.99999970517
9.9999998559
10.0000000054
10.0000001527
10.0000002966
10.0000004364
10.0000005715
10.0000007014
10.0000008256
10.0000009442
10.0000010568
10.0000011636
10.0000012645
10.0000013598
10.0000014497
10.0000015344
10.0000016143
10.0000016896
10.0000017607
10.000001828
10.0000018917
10.0000019523
10.0000020098
10.0000020647
10.0000021166
10.0000021658
10.0000022103
10.0000022541
10.0000022874
10.0000023439
10.0000023279
10.0000000043
10.0000000367
10.0000000622
10.0000000836
10.0000001029
10.0000001204
10.0000001371
10.0000001534
10.0000001702
10.0000001868
10.0000002033
10.00000022
10.000000237
10.0000002544
10.0000002723
10.0000002907
10.0000003097
10.0000003291
10.0000003492
10.0000003694
10.0000003903
10.0000004111
10.0000004329
10.0000004537
10.0000004765
10.0000004968
10.000000521
10.0000005399
10.0000005662
10.0000005825
10.0000006119
10.0000006243
10.0000006572
10.000000665
10.0000007006
10.0000007043
10.0000007401
10.0000007416
10.0000007732
10.0000007751
10.0000007988
10.0000008021
10.0000008163
10.0000008198
10.0000008258
10.0000008269
10.0000008267
10.0000008238
10.0000008188
10.0000008116
10.0000008023
10.0000007909
10.0000007776
10.0000007624
10.0000007454
10.0000007268
10.0000007065
10.0000006848
10.0000006614
10.0000006364
10.0000006093
10.0000005799
10.0000005475
10.0000005112
10.0000004699
10.0000004218
10.0000003649
10.0000002974
10.000000218
10.0000001264
10.0000000235
9.9999999107
9.99999978974
9.99999966268
9.99999953187
9.99999939978
9.99999926927
9.99999914324
9.99999902479
9.99999891671
9.99999882166
9.99999874176
9.99999867884
9.99999863411
9.99999860844
9.9999986021
9.99999861507
9.99999864678
9.99999869646
9.99999876287
9.99999884467
9.99999894018
9.9999990477
9.99999916531
9.99999929121
9.99999942346
9.99999956033
9.99999970002
9.99999984102
9.99999998181
10.0000001212
10.0000002579
10.0000003913
10.0000005204
10.0000006448
10.000000764
10.0000008779
10.0000009862
10.0000010891
10.0000011866
10.0000012789
10.0000013662
10.0000014489
10.0000015274
10.0000016019
10.0000016729
10.0000017408
10.0000018059
10.0000018686
10.000001929
10.0000019877
10.000002044
10.0000020992
10.0000021496
10.0000022032
10.0000022407
10.0000023141
10.000002297
10.0000000052
10.00000004
10.0000000681
10.000000091
10.0000001108
10.000000128
10.0000001434
10.0000001579
10.0000001723
10.0000001874
10.0000002024
10.0000002177
10.0000002335
10.0000002499
10.0000002673
10.0000002855
10.0000003049
10.000000325
10.0000003466
10.0000003685
10.0000003925
10.0000004156
10.0000004423
10.0000004655
10.0000004955
10.0000005169
10.0000005519
10.0000005683
10.000000611
10.000000618
10.0000006722
10.0000006646
10.0000007339
10.0000007075
10.0000007924
10.0000007477
10.0000008422
10.0000007873
10.000000878
10.0000008267
10.0000008978
10.0000008622
10.0000009048
10.0000008874
10.0000009045
10.0000008981
10.0000008999
10.0000008956
10.0000008907
10.0000008841
10.0000008759
10.0000008666
10.000000856
10.0000008443
10.0000008316
10.0000008182
10.000000804
10.0000007894
10.0000007741
10.0000007583
10.0000007417
10.0000007239
10.0000007045
10.0000006825
10.0000006568
10.0000006256
10.0000005867
10.0000005383
10.0000004789
10.0000004083
10.000000327
10.0000002362
10.0000001374
10.000000032
9.99999992176
9.99999980865
9.99999969488
9.99999958292
9.99999947537
9.99999937475
9.99999928345
9.99999920358
9.99999913692
9.99999908493
9.99999904866
9.9999990288
9.99999902567
9.99999903919
9.99999906894
9.99999911415
9.99999917378
9.99999924652
9.99999933088
9.99999942526
9.99999952792
9.99999963718
9.99999975131
9.99999986872
9.99999998788
10.0000001074
10.0000002261
10.0000003429
10.000000457
10.0000005676
10.0000006742
10.0000007765
10.0000008744
10.0000009676
10.0000010564
10.0000011409
10.0000012213
10.0000012979
10.0000013711
10.0000014413
10.0000015088
10.0000015741
10.0000016375
10.0000016994
10.0000017602
10.0000018199
10.0000018791
10.0000019367
10.0000019951
10.0000020482
10.0000021085
10.0000021482
10.0000022316
10.0000022195
10.000000005
10.0000000415
10.0000000714
10.0000000963
10.0000001175
10.0000001351
10.00000015
10.0000001633
10.0000001762
10.0000001894
10.0000002034
10.0000002176
10.0000002326
10.0000002483
10.0000002654
10.0000002834
10.0000003032
10.0000003234
10.0000003464
10.0000003685
10.0000003951
10.0000004177
10.0000004492
10.0000004694
10.0000005086
10.0000005212
10.0000005737
10.0000005697
10.0000006454
10.0000006107
10.0000007247
10.0000006407
10.0000008104
10.0000006592
10.0000008966
10.000000672
10.0000009703
10.0000006913
10.0000010141
10.0000007299
10.0000010173
10.0000007883
10.0000009872
10.0000008492
10.0000009473
10.0000008897
10.0000009181
10.0000009017
10.0000009014
10.0000008949
10.0000008882
10.000000881
10.0000008729
10.0000008641
10.0000008547
10.0000008448
10.0000008346
10.0000008244
10.0000008141
10.000000804
10.0000007938
10.0000007835
10.0000007725
10.0000007603
10.0000007455
10.0000007265
10.0000007008
10.0000006665
10.0000006223
10.0000005682
10.000000505
10.0000004341
10.0000003567
10.0000002743
10.000000188
10.0000000988
10.0000000089
9.99999992052
9.99999983584
9.99999975696
9.99999968558
9.99999962319
9.99999957086
9.99999952934
9.99999949957
9.99999948216
9.99999947754
9.99999948574
9.99999950661
9.99999953963
9.99999958412
9.99999963909
9.99999970343
9.99999977583
9.99999985497
9.99999993941
10.0000000278
10.0000001187
10.0000002111
10.0000003036
10.0000003953
10.0000004855
10.0000005734
10.0000006585
10.0000007405
10.0000008192
10.0000008946
10.0000009666
10.0000010355
10.0000011016
10.0000011652
10.0000012265
10.0000012862
10.0000013444
10.0000014017
10.0000014584
10.0000015149
10.0000015714
10.0000016283
10.0000016853
10.0000017434
10.0000018005
10.0000018604
10.0000019145
10.0000019788
10.0000020202
10.0000021073
10.0000021036
10.0000000056
10.0000000434
10.0000000751
10.0000001014
10.0000001235
10.0000001415
10.0000001562
10.0000001687
10.0000001805
10.0000001922
10.000000205
10.0000002183
10.0000002327
10.0000002479
10.0000002648
10.0000002825
10.0000003029
10.0000003227
10.0000003474
10.0000003681
10.0000003986
10.000000417
10.0000004568
10.0000004664
10.0000005231
10.0000005112
10.0000006007
10.000000544
10.0000006953
10.0000005544
10.0000008142
10.0000005318
10.0000009631
10.0000004711
10.0000011367
10.000000384
10.0000013077
10.000000308
10.0000014237
10.0000002989
10.0000014295
10.0000003955
10.0000013125
10.000000575
10.0000011322
10.0000007542
10.0000009822
10.0000008591
10.0000009087
10.0000008879
10.0000008869
10.0000008833
10.0000008777
10.0000008725
10.0000008663
10.0000008596
10.0000008526
10.0000008454
10.0000008384
10.0000008317
10.0000008252
10.0000008188
10.0000008121
10.0000008045
10.0000007947
10.0000007806
10.00000076
10.0000007313
10.0000006934
10.0000006473
10.0000005933
10.0000005344
10.0000004701
10.0000004021
10.0000003321
10.0000002617
10.0000001929
10.0000001275
10.0000000673
10.0000000138
9.99999996819
9.99999993105
9.99999990262
9.99999988308
9.99999987206
9.9999998698
9.99999987552
9.99999988979
9.99999991259
9.99999994359
9.99999998223
10.0000000278
10.0000000795
10.0000001363
10.0000001971
10.000000261
10.0000003268
10.0000003937
10.0000004607
10.000000527
10.0000005919
10.0000006551
10.000000716
10.0000007746
10.0000008306
10.0000008842
10.0000009355
10.0000009848
10.0000010324
10.0000010786
10.000001124
10.0000011689
10.0000012137
10.000001259
10.0000013051
10.0000013523
10.0000014008
10.0000014509
10.0000015028
10.0000015561
10.0000016117
10.0000016671
10.0000017264
10.00000178
10.0000018452
10.0000018871
10.0000019732
10.0000019765
10.0000000054
10.0000000442
10.0000000771
10.0000001049
10.0000001284
10.0000001471
10.000000162
10.0000001741
10.0000001851
10.0000001958
10.0000002075
10.00000022
10.0000002339
10.0000002484
10.0000002656
10.0000002826
10.0000003043
10.0000003228
10.0000003505
10.0000003678
10.0000004048
10.0000004145
10.0000004687
10.0000004573
10.0000005461
10.0000004869
10.000000646
10.000000487
10.0000007851
10.0000004333
10.0000009886
10.000000294
10.0000012856
10.0000000407
10.0000016909
9.99999967505
10.0000021704
9.99999926751
10.0000026057
9.9999989777
10.0000028052
9.99999899929
10.0000026111
9.99999941013
10.0000020643
10.0000000431
10.0000014431
10.0000005789
10.0000010397
10.0000008351
10.0000009013
10.0000008892
10.0000008843
10.0000008855
10.0000008812
10.0000008775
10.0000008724
10.000000867
10.000000862
10.0000008576
10.0000008533
10.0000008497
10.0000008466
10.000000843
10.0000008362
10.0000008238
10.0000008034
10.0000007742
10.0000007364
10.0000006912
10.0000006406
10.0000005851
10.0000005265
10.0000004663
10.0000004062
10.000000348
10.0000002937
10.0000002452
10.0000002043
10.0000001723
10.0000001497
10.0000001366
10.0000001325
10.0000001367
10.0000001482
10.0000001662
10.0000001897
10.0000002177
10.0000002501
10.0000002857
10.0000003253
10.0000003683
10.0000004142
10.000000462
10.0000005111
10.0000005607
10.0000006099
10.0000006583
10.0000007052
10.0000007501
10.0000007928
10.0000008331
10.0000008709
10.0000009063
10.0000009396
10.0000009709
10.0000010008
10.0000010297
10.000001058
10.0000010863
10.0000011151
10.000001145
10.0000011764
10.0000012097
10.0000012452
10.0000012834
10.0000013242
10.0000013679
10.0000014144
10.0000014634
10.0000015152
10.0000015677
10.0000016245
10.000001676
10.0000017389
10.0000017795
10.0000018607
10.0000018671
10.0000000058
10.0000000455
10.0000000795
10.0000001082
10.0000001325
10.0000001519
10.0000001671
10.0000001791
10.0000001896
10.0000001996
10.0000002104
10.0000002221
10.0000002357
10.0000002494
10.0000002671
10.000000283
10.0000003065
10.0000003229
10.0000003549
10.0000003667
10.0000004131
10.0000004096
10.0000004846
10.0000004428
10.0000005775
10.0000004497
10.0000007101
10.0000004009
10.0000009181
10.000000246
10.0000012617
9.99999990771
10.0000018272
9.99999928989
10.0000027052
9.99999831935
10.0000039221
9.9999970419
10.000005322
9.99999574793
10.0000064658
9.99999500294
10.0000067248
9.99999538942
10.0000057128
9.99999696225
10.0000038034
9.99999895156
10.0000020215
10.0000003458
10.0000011057
10.0000008558
10.0000008997
10.0000009167
10.0000009046
10.0000009087
10.0000009056
10.0000009054
10.0000009039
10.0000009
10.0000008971
10.0000008998
10.0000009051
10.0000009011
10.000000878
10.0000008354
10.0000007815
10.000000727
10.0000006776
10.0000006352
10.0000005949
10.0000005539
10.0000005107
10.0000004654
10.0000004193
10.0000003747
10.0000003345
10.0000003012
10.0000002771
10.0000002635
10.0000002608
10.0000002686
10.0000002859
10.0000003116
10.000000344
10.0000003817
10.0000004233
10.0000004673
10.0000005128
10.0000005585
10.0000006042
10.0000006487
10.0000006931
10.0000007368
10.0000007792
10.0000008198
10.0000008581
10.0000008937
10.0000009263
10.0000009558
10.000000982
10.0000010052
10.0000010255
10.0000010433
10.000001059
10.0000010732
10.0000010864
10.0000010993
10.0000011125
10.0000011267
10.0000011425
10.0000011604
10.000001181
10.0000012047
10.0000012317
10.0000012624
10.0000012965
10.0000013345
10.0000013758
10.0000014203
10.0000014678
10.0000015166
10.0000015691
10.0000016171
10.0000016752
10.0000017126
10.0000017862
10.0000017919
10.0000000057
10.0000000461
10.000000081
10.0000001107
10.0000001359
10.0000001561
10.0000001717
10.0000001838
10.0000001941
10.0000002035
10.0000002138
10.0000002245
10.000000238
10.0000002507
10.0000002691
10.0000002837
10.0000003093
10.0000003231
10.0000003597
10.0000003657
10.000000422
10.0000004051
10.0000005008
10.0000004289
10.0000006087
10.000000414
10.000000774
10.0000003155
10.0000010548
10.0000000499
10.0000015597
9.99999947152
10.0000024707
9.9999983554
10.0000040458
9.99999642279
10.000006547
9.99999347872
10.0000100198
9.9999897229
10.0000139117
9.99998614228
10.0000167855
9.99998452853
10.0000167532
9.99998647363
10.0000130124
9.99999158897
10.0000073086
9.99999705351
10.000002857
10.0000001691
10.0000011011
10.0000009607
10.000000904
10.0000009585
10.0000009471
10.0000009635
10.0000009509
10.0000009353
10.0000009617
10.0000010225
10.0000010184
10.0000008367
10.0000004612
9.99999999511
9.99999959345
9.99999936807
9.9999993472
9.99999947922
9.99999968426
9.99999989196
10.0000000603
10.0000001753
10.000000242
10.0000002739
10.0000002855
10.0000002891
10.0000002936
10.0000003048
10.0000003254
10.000000356
10.0000003957
10.0000004427
10.0000004947
10.0000005497
10.0000006062
10.0000006625
10.0000007181
10.0000007719
10.0000008235
10.0000008722
10.0000009178
10.0000009598
10.000000999
10.0000010346
10.0000010663
10.0000010937
10.0000011167
10.0000011354
10.00000115
10.0000011609
10.0000011684
10.0000011733
10.0000011763
10.000001178
10.0000011792
10.0000011807
10.0000011833
10.0000011877
10.0000011944
10.0000012043
10.0000012174
10.0000012346
10.0000012556
10.000001281
10.0000013102
10.0000013438
10.0000013807
10.0000014213
10.0000014643
10.0000015091
10.0000015566
10.0000016003
10.000001652
10.000001685
10.0000017493
10.0000017522
10.000000006
10.0000000471
10.0000000823
10.0000001125
10.0000001384
10.0000001592
10.0000001754
10.0000001877
10.0000001981
10.0000002071
10.0000002172
10.0000002271
10.0000002403
10.0000002521
10.0000002709
10.0000002845
10.0000003116
10.0000003237
10.0000003632
10.0000003663
10.0000004276
10.0000004048
10.0000005095
10.000000426
10.0000006228
10.0000004036
10.0000008002
10.0000002851
10.000001113
9.99999996442
10.0000017076
9.99999923493
10.0000028633
9.99999772113
10.0000050642
9.9999948183
10.0000090227
9.99998974443
10.0000154958
9.99998192498
10.0000246351
9.99997193675
10.0000348117
9.99996271872
10.0000417532
9.99995952584
10.000040107
9.9999664811
10.0000285127
9.99998108143
10.0000134024
9.9999943863
10.0000036237
10.0000003599
10.0000008827
10.0000011536
10.000001001
10.0000010431
10.0000008974
10.0000010277
10.000001452
10.0000014668
9.99999993334
9.99999630185
9.99999123765
9.9999862914
9.9999829945
9.99998211827
9.99998350236
9.99998635573
9.99998973614
9.99999290107
9.99999544995
9.99999728663
9.99999850102
9.9999992531
9.99999969852
9.99999995709
10.0000001094
10.0000002056
10.0000002762
10.0000003399
10.0000004081
10.0000004862
10.0000005749
10.0000006714
10.0000007707
10.0000008672
10.0000009563
10.0000010346
10.0000011007
10.0000011542
10.0000011962
10.0000012281
10.0000012515
10.0000012687
10.000001281
10.0000012891
10.0000012938
10.0000012955
10.0000012946
10.0000012915
10.0000012868
10.0000012809
10.0000012744
10.0000012677
10.0000012616
10.0000012568
10.0000012537
10.0000012531
10.0000012554
10.0000012612
10.0000012707
10.0000012845
10.0000013023
10.0000013246
10.0000013506
10.0000013811
10.0000014144
10.0000014514
10.0000014902
10.0000015307
10.0000015729
10.0000016115
10.0000016563
10.0000016835
10.0000017379
10.0000017356
10.0000000061
10.0000000477
10.0000000834
10.0000001141
10.0000001404
10.0000001617
10.0000001785
10.0000001911
10.0000002017
10.0000002105
10.0000002205
10.0000002296
10.0000002425
10.0000002537
10.0000002723
10.0000002857
10.0000003127
10.0000003255
10.0000003642
10.0000003698
10.0000004276
10.0000004122
10.0000005058
10.0000004411
10.0000006092
10.0000004348
10.000000764
10.0000003482
10.0000010327
10.0000000845
10.0000015554
9.99999943443
10.0000026349
9.99999795972
10.0000048896
9.9999948016
10.0000094746
9.99998845982
10.0000182387
9.99997681048
10.0000333666
9.99995802836
10.0000556567
9.99993326179
10.0000809948
9.99991043663
10.0000975148
9.99990424795
10.0000905256
9.99992510635
10.0000585314
9.99996277607
10.0000223114
9.99999187995
10.0000032363
10.000001633
10.0000005829
10.0000007583
10.0000007736
10.0000033306
10.0000038225
9.9999937248
9.99996586929
9.99992169762
9.99987201077
9.99983128055
9.99981036049
9.99981244375
9.99983343609
9.99986530958
9.99989976864
9.99993072822
9.9999551444
9.99997253924
9.99998395762
9.99999098286
9.99999510878
9.99999747329
9.99999882823
9.99999961546
10.0000000701
10.0000003106
10.0000004025
10.0000003936
10.0000003276
10.000000244
10.0000001747
10.0000001402
10.0000001495
10.0000002014
10.0000002883
10.0000003996
10.0000005239
10.0000006512
10.0000007738
10.0000008862
10.0000009859
10.0000010714
10.0000011421
10.0000011988
10.0000012425
10.0000012747
10.0000012973
10.0000013119
10.0000013203
10.0000013241
10.000001325
10.0000013242
10.0000013232
10.0000013229
10.0000013244
10.0000013285
10.0000013358
10.0000013466
10.0000013615
10.0000013802
10.0000014029
10.0000014291
10.0000014587
10.0000014905
10.0000015251
10.0000015591
10.0000015962
10.0000016267
10.0000016651
10.0000016822
10.0000017276
10.0000017134
10.0000000063
10.0000000483
10.000000084
10.0000001146
10.0000001414
10.0000001632
10.0000001805
10.0000001936
10.0000002046
10.0000002135
10.0000002232
10.000000232
10.0000002442
10.0000002553
10.000000273
10.0000002872
10.0000003124
10.0000003281
10.0000003626
10.0000003756
10.0000004228
10.0000004249
10.0000004927
10.0000004685
10.0000005759
10.0000004939
10.0000006845
10.000000476
10.0000008522
10.0000003586
10.0000011638
10.0000000058
10.0000018294
9.99999908813
10.0000033569
9.99999682803
10.0000069147
9.99999150366
10.0000149657
9.99997971707
10.0000319787
9.99995597042
10.0000640962
9.99991444944
10.0001150533
9.99985614162
10.000175955
9.99980074768
10.0002154118
9.99978824332
10.0001935931
9.99984471373
10.000112194
9.99993434486
10.0000322092
9.9999938923
9.99999757608
10.0000015427
10.000009232
10.0000161831
9.99996399836
9.99979732994
9.99949782489
9.99911533158
9.99874671301
9.99848866538
9.99839720959
9.99847364932
9.99867598576
9.99894358742
9.99921890731
9.99946132201
9.99965121727
9.99978643764
9.9998752746
9.9999297729
9.9999613375
9.99997882633
9.99998831593
9.99999360703
9.99999687458
9.9999992261
10.0000011257
10.0000026984
10.0000039329
10.0000047976
10.0000052929
10.0000054596
10.0000053672
10.0000050954
10.0000047196
10.000004301
10.0000038839
10.0000034963
10.0000031525
10.0000028575
10.0000026097
10.0000024045
10.0000022353
10.0000020954
10.0000019786
10.00000188
10.0000017955
10.0000017223
10.0000016585
10.0000016027
10.0000015542
10.0000015123
10.0000014775
10.0000014489
10.0000014275
10.0000014121
10.0000014043
10.0000014016
10.0000014069
10.0000014156
10.0000014326
10.0000014501
10.0000014764
10.0000014986
10.0000015309
10.0000015519
10.0000015868
10.0000015981
10.0000016333
10.000001622
10.0000016611
10.000001606
10.0000000066
10.0000000489
10.000000085
10.0000001154
10.0000001419
10.000000164
10.0000001817
10.0000001954
10.0000002067
10.0000002159
10.0000002252
10.0000002339
10.0000002454
10.0000002567
10.0000002731
10.0000002887
10.0000003115
10.0000003308
10.0000003603
10.0000003814
10.0000004174
10.000000437
10.0000004801
10.0000004936
10.0000005459
10.0000005464
10.0000006146
10.0000005892
10.0000006911
10.0000006089
10.0000007954
10.0000005671
10.0000009937
10.0000003436
10.0000014986
9.99999956496
10.0000029541
9.99999713621
10.0000071765
9.99999012532
10.0000187516
9.99997164333
10.0000475379
9.99992846308
10.0001098138
9.99984307125
10.0002202056
9.99971090255
10.0003634174
9.99957734591
10.0004587287
9.99955088407
10.0003975309
9.99969435309
10.000205512
9.99989441611
10.0000193707
10.000036052
10.0000563855
9.99986597892
9.99907506237
9.99749827674
9.9952383651
9.99276103777
9.99066307374
9.98941883944
9.9892280374
9.98999660608
9.99143651343
9.99319544031
9.99495612947
9.99649712878
9.99771068011
9.99858493061
9.9991680539
9.99953190794
9.99974616686
9.99986580211
9.99992891146
9.99995981628
9.99997334697
9.9999783141
9.99997978143
9.99998045007
9.99998153579
9.99998337021
9.99998582553
9.9999885989
9.99999138113
9.99999393684
9.99999612645
9.99999789564
9.99999925212
10.000000241
10.0000009245
10.0000013683
10.0000016324
10.0000017683
10.0000018164
10.0000018075
10.0000017641
10.0000017022
10.0000016328
10.0000015627
10.000001497
10.0000014378
10.0000013877
10.0000013457
10.0000013144
10.0000012905
10.0000012778
10.0000012699
10.0000012742
10.0000012788
10.0000012975
10.0000013096
10.0000013396
10.0000013522
10.0000013898
10.0000013934
10.0000014347
10.0000014163
10.0000014569
10.0000013985
10.0000014354
10.0000013113
10.0000013468
10.0000011204
10.0000000067
10.0000000492
10.000000085
10.0000001152
10.0000001415
10.0000001635
10.0000001816
10.0000001958
10.0000002075
10.000000217
10.0000002262
10.0000002351
10.000000246
10.0000002577
10.0000002731
10.0000002897
10.0000003107
10.0000003325
10.0000003588
10.0000003848
10.0000004147
10.0000004438
10.0000004745
10.0000005062
10.0000005336
10.0000005702
10.000000587
10.0000006368
10.0000006276
10.0000007122
10.0000006436
10.0000008107
10.0000006155
10.0000009539
10.0000005247
10.0000011404
10.0000004291
10.0000011754
10.000000812
10.0000000088
10.0000037869
9.99999365341
10.0000164801
9.99997006101
10.0000581416
9.99990046855
10.0001684332
9.99973597489
10.0003977995
9.99944232439
10.0007341286
9.99911728865
10.0009640262
9.99906954816
10.0008028519
9.99936930109
10.0004044826
10.000129548
9.99958773007
9.99673571084
9.99014742949
9.97987829428