/*--------------------------------*- C++ -*----------------------------------*\
  =========                 |
  \\      /  F ield         | OpenFOAM: The Open Source CFD Toolbox
   \\    /   O peration     | Website:  https://openfoam.org
    \\  /    A nd           | Version:  7
     \\/     M anipulation  |
\*---------------------------------------------------------------------------*/
FoamFile
{
    version     2.0;
    format      ascii;
    class       volScalarField;
    location    "1440";
    object      p;
}
// * * * * * * * * * * * * * * * * * * * * * * * * * * * * * * * * * * * * * //

dimensions      [0 2 -2 0 0 0 0];

internalField   nonuniform List<scalar> 
8192
(
0.000631429059189
0.000459888674873
0.000374296727418
0.000330216412511
0.000305228029252
0.000290026941909
0.000280192798709
0.000273479799978
0.000268680534612
0.000265110885682
0.000262363642598
0.000260185153825
0.000258410846109
0.000256930060118
0.000255666066988
0.000254564254209
0.000253584876305
0.000252698450447
0.000251882738136
0.000251120708953
0.000250399130435
0.000249707567854
0.00024903765859
0.000248382574144
0.000247736612346
0.000247094880855
0.000246453044881
0.000245807119458
0.000245153292906
0.000244487771122
0.000243806633505
0.000243105693989
0.000242380361733
0.000241625497057
0.000240835258904
0.000240002941126
0.000239120795813
0.000238179843473
0.000237169671675
0.000236078226579
0.000234891605148
0.000233593860517
0.000232166838281
0.00023059006777
0.000228840738456
0.000226893797023
0.000224722203184
0.000222297380708
0.000219589891837
0.000216570347884
0.000213210546036
0.000209484795777
0.000205371372009
0.000200854012181
0.000195923364161
0.000190578290343
0.000184826935241
0.000178687463795
0.000172188373939
0.000165368288487
0.000158275150218
0.000150964792513
0.000143498936973
0.000135942769892
0.000128362343656
0.000120822102901
0.000113382813067
0.000106100057177
9.90233417165e-05
9.2195729827e-05
8.56538279549e-05
7.94279314009e-05
7.3542175169e-05
6.80146129342e-05
6.28572239869e-05
5.80759046037e-05
5.36705270935e-05
4.96351489889e-05
4.59584301753e-05
4.2624276387e-05
3.96126831215e-05
3.69007173093e-05
3.44635526328e-05
3.22754723093e-05
3.03107667453e-05
2.85444772341e-05
2.69529627152e-05
2.55142897428e-05
2.42084622626e-05
2.30175176611e-05
2.19255189498e-05
2.091847229e-05
1.9984195382e-05
1.91121576823e-05
1.82933083319e-05
1.75199033406e-05
1.67853396507e-05
1.60840008772e-05
1.54111171616e-05
1.47626401366e-05
1.41351328064e-05
1.35256736049e-05
1.29317733849e-05
1.23513040283e-05
1.17824372012e-05
1.12235919235e-05
1.06733896064e-05
1.01306154332e-05
9.59418499759e-06
9.06311536144e-06
8.53649976973e-06
8.01348554456e-06
7.4932548393e-06
6.97500834593e-06
6.45795244977e-06
5.94129113905e-06
5.42422508512e-06
4.90596234275e-06
4.38574841605e-06
3.86292945883e-06
3.33707323607e-06
2.80819333328e-06
2.27716339228e-06
1.74649462649e-06
1.22184492197e-06
7.15112129566e-07
2.52039436222e-07
-3.88974581856e-08
0.000482505902913
0.000419001559729
0.000369333401883
0.000336709556057
0.000314817462606
0.000299663969665
0.000288868815073
0.000280966339264
0.000275030987414
0.000270464339579
0.000266870438872
0.000263981272265
0.000261611403554
0.000259629838343
0.000257942235534
0.000256479433781
0.000255189900055
0.000254034658943
0.000252983820403
0.000252014156711
0.000251107380525
0.000250248899579
0.000249426900531
0.000248631663406
0.000247855039478
0.000247090046088
0.000246330545674
0.000245570984456
0.000244806174756
0.000244031108292
0.000243240789292
0.000242430080084
0.000241593553068
0.000240725344338
0.000239819005208
0.000238867349045
0.000237862291934
0.000236794687168
0.00023565415531
0.000234428913955
0.000233105614221
0.000231669194708
0.000230102767921
0.000228387558987
0.000226502921108
0.000224426456156
0.000222134270449
0.000219601394072
0.000216802385087
0.000213712127251
0.000210306811102
0.000206565066284
0.000202469191068
0.000198006408631
0.000193170071213
0.000187960733232
0.000182387017482
0.000176466200001
0.000170224437086
0.000163696559086
0.000156925370615
0.000149960435287
0.0001428563863
0.000135670885275
0.000128462429493
0.000121288255159
0.000114202570541
0.000107255251217
0.000100491032039
9.39491349416e-05
8.76631909574e-05
8.16612998791e-05
7.59661057721e-05
7.05948290241e-05
6.55592567044e-05
6.0865736292e-05
5.65152377539e-05
5.25035477341e-05
4.88216399899e-05
4.5456234745e-05
4.23905240778e-05
3.96050109927e-05
3.70783928827e-05
3.47884187781e-05
3.27126611083e-05
3.08291619673e-05
2.91169346872e-05
2.75563200068e-05
2.61292093332e-05
2.48191555785e-05
2.36113950281e-05
2.24928034485e-05
2.14518070359e-05
2.04782654083e-05
1.95633400002e-05
1.86993578412e-05
1.78796776136e-05
1.70985625768e-05
1.63510630058e-05
1.56329095249e-05
1.49404176805e-05
1.42704035444e-05
1.36201096587e-05
1.29871404895e-05
1.23694063762e-05
1.17650750204e-05
1.11725295228e-05
1.05903321236e-05
1.00171928361e-05
9.4519423548e-06
8.89350870731e-06
8.34089736314e-06
7.79317469394e-06
7.24945505135e-06
6.70889212718e-06
6.17067596588e-06
5.63403793731e-06
5.09826753537e-06
4.56274718361e-06
4.02701501161e-06
3.49087154089e-06
2.95455609753e-06
2.41903515251e-06
1.88647344964e-06
1.36100936944e-06
8.50085646469e-07
3.66214027969e-07
1.13555417999e-08
0.000399533784644
0.000376879529432
0.000350908684506
0.000329697082259
0.00031360351395
0.000301317002149
0.000291817022948
0.000284375396278
0.000278469868105
0.000273721190125
0.00026985112624
0.00026665374887
0.000263975357516
0.000261700241749
0.000259740513512
0.000258028806422
0.000256513004612
0.000255152412299
0.000253914949276
0.000252775080069
0.000251712270562
0.000250709826235
0.000249754008296
0.00024883335352
0.000247938144262
0.000247059989725
0.000246191489998
0.00024532595994
0.000244457199124
0.000243579295706
0.000242686452848
0.000241772831072
0.000240832400665
0.000239858799608
0.000238845193456
0.000237784134794
0.000236667420816
0.000235485949003
0.000234229572269
0.00023288695702
0.000231445449883
0.000229890961983
0.000228207883065
0.000226379041887
0.000224385733186
0.000222207835157
0.000219824043102
0.000217212244027
0.000214350051368
0.000211215508293
0.000207787951293
0.000204049005676
0.000199983664035
0.000195581383723
0.000190837132758
0.000185752316326
0.000180335521894
0.000174603023659
0.000168578982744
0.000162295275524
0.000155790890252
0.000149110862948
0.000142304778526
0.000135424939331
0.000128524381971
0.00012165497901
0.000114865856358
0.000108202241889
0.000101704771074
9.54091921125e-05
8.93463261666e-05
8.35421307348e-05
7.80177547591e-05
7.27895390877e-05
6.78689733895e-05
6.32626572429e-05
5.89723277e-05
5.49950125826e-05
5.13233497901e-05
4.79460832465e-05
4.4848712558e-05
4.20142461616e-05
3.94239928676e-05
3.70583270628e-05
3.48973747685e-05
3.29215864254e-05
3.11121813636e-05
2.94514651755e-05
2.79230321833e-05
2.65118714664e-05
2.52043968045e-05
2.39884202768e-05
2.2853086753e-05
2.17887835908e-05
2.0787036596e-05
1.9840400572e-05
1.89423502504e-05
1.80871755678e-05
1.72698836557e-05
1.64861089123e-05
1.57320316372e-05
1.50043052725e-05
1.42999918494e-05
1.36165051216e-05
1.29515606717e-05
1.23031323207e-05
1.16694141046e-05
1.10487872051e-05
1.04397912184e-05
9.84109931688e-06
9.2514969007e-06
8.66986355143e-06
8.09515821243e-06
7.52640781833e-06
6.9626998419e-06
6.40317970671e-06
5.84705453317e-06
5.29360554909e-06
4.74221257607e-06
4.19239566674e-06
3.64388123898e-06
3.09670353851e-06
2.55135748827e-06
2.00902676799e-06
1.47191940396e-06
9.4367488096e-07
4.2907862474e-07
2.52245639215e-08
0.000354950391406
0.000346580123284
0.000332408897374
0.000318638487246
0.000307230855715
0.000297974238959
0.000290415436369
0.000284186010689
0.000279007766589
0.000274668137154
0.0002710013714
0.000267876403851
0.00026518876738
0.000262854811674
0.000260807335425
0.000258992183493
0.000257365560311
0.000255891899637
0.00025454217404
0.000253292553047
0.000252123337067
0.000251018108583
0.000249963053914
0.000248946418489
0.000247958066341
0.000246989120885
0.000246031668763
0.000245078510353
0.000244122948925
0.000243158609093
0.000242179274741
0.000241178741819
0.000240150681185
0.000239088507684
0.000237985252455
0.000236833436317
0.000235624942902
0.00023435089128
0.000233001508985
0.000231566008004
0.000230032468233
0.000228387735532
0.000226617344582
0.000224705480494
0.000222634997035
0.000220387513219
0.000217943612598
0.000215283169898
0.000212385825636
0.000209231619814
0.000205801779787
0.000202079636679
0.000198051623175
0.000193708289584
0.000189045269971
0.000184064136586
0.000178773091452
0.000173187448074
0.000167329847628
0.000161230140684
0.000154924864647
0.000148456271881
0.000141870916089
0.000135217884737
0.00012854685932
0.000121906262089
0.000115341752125
0.000108895179345
0.000102604011586
9.65011694323e-05
9.06150943242e-05
8.4969876695e-05
7.95853280159e-05
7.44769609149e-05
6.9655903911e-05
6.51288103539e-05
6.08978314659e-05
5.69607176995e-05
5.33110920012e-05
4.99389061886e-05
4.68310552182e-05
4.39720948684e-05
4.13449939785e-05
3.8931854919e-05
3.6714550886e-05
3.46752493476e-05
3.27968109126e-05
3.10630685023e-05
2.94590014035e-05
2.79708234082e-05
2.65860048826e-05
2.52932470163e-05
2.40824236284e-05
2.29445028397e-05
2.18714579039e-05
2.08561739936e-05
1.98923556139e-05
1.89744377569e-05
1.80975026607e-05
1.72572032091e-05
1.64496933504e-05
1.56715655471e-05
1.49197949558e-05
1.41916899192e-05
1.34848482302e-05
1.27971186352e-05
1.21265670136e-05
1.14714467414e-05
1.08301727618e-05
1.02012989876e-05
9.58349870576e-06
8.97554778194e-06
8.37631054228e-06
7.784728376e-06
7.19981124147e-06
6.62063249893e-06
6.04632774742e-06
5.47609874528e-06
4.90922400359e-06
4.34507845686e-06
3.78316583144e-06
3.22316931556e-06
2.66502884334e-06
2.10905462263e-06
1.55606838364e-06
1.0074269963e-06
4.64128773674e-07
2.75761821858e-08
0.000327300935874
0.000325354338939
0.000317576532763
0.000308403314684
0.000300139368608
0.000293121803406
0.000287193504821
0.000282149109814
0.000277820282196
0.000274077368416
0.000270819128659
0.000267964336302
0.000265446377345
0.000263209869498
0.000261208426303
0.000259403048728
0.000257760877373
0.00025625417502
0.000254859475345
0.000253556863311
0.000252329365366
0.000251162433034
0.000250043506008
0.000248961642547
0.000247907206291
0.000246871600286
0.000245847038865
0.00024482634876
0.00024380279689
0.00024276993894
0.0002417214811
0.000240651152777
0.000239552586861
0.000238419204723
0.000237244103622
0.000236019944741
0.000234738840655
0.000233392241772
0.000231970822205
0.000230464366797
0.000228861662686
0.00022715040106
0.000225317097626
0.000223347043996
0.000221224306403
0.000218931792705
0.000216451412465
0.000213764356793
0.000210851522306
0.000207694095083
0.00020427429418
0.000200576251389
0.000196586978927
0.000192297358129
0.000187703077884
0.000182805463428
0.000177612154279
0.000172137597219
0.000166403305244
0.000160437806696
0.000154276196547
0.000147959222174
0.000141531887834
0.000135041650309
0.000128536400393
0.000122062540292
0.00011566348256
0.000109378676939
0.000103243165903
9.72875888984e-05
9.15384074281e-05
8.60181353866e-05
8.07454448571e-05
7.57351254947e-05
7.09979468376e-05
6.65405014117e-05
6.23651114775e-05
5.84698740526e-05
5.48488954765e-05
5.14927289028e-05
4.83889849437e-05
4.55230516817e-05
4.28788454041e-05
4.04395192137e-05
3.818807652e-05
3.61078613345e-05
3.41829195427e-05
3.23982411711e-05
3.07399023065e-05
2.91951282884e-05
2.77522988807e-05
2.6400913316e-05
2.51315295259e-05
2.39356884447e-05
2.28058312452e-05
2.17352149791e-05
2.07178302138e-05
1.97483229225e-05
1.8821921883e-05
1.79343721921e-05
1.70818750253e-05
1.62610335022e-05
1.54688043179e-05
1.47024547236e-05
1.39595243715e-05
1.3237791553e-05
1.25352433529e-05
1.18500492924e-05
1.11805380554e-05
1.05251769578e-05
9.88255385489e-06
9.25136125391e-06
8.63038244944e-06
8.01847958479e-06
7.41458361762e-06
6.81768629677e-06
6.22683440262e-06
5.64112675668e-06
5.05971486787e-06
4.48180869268e-06
3.90668986805e-06
3.33373584035e-06
2.76245825696e-06
2.19255189176e-06
1.62391237185e-06
1.05643161744e-06
4.88984695028e-07
2.81123993758e-08
0.000308926069895
0.000309848287448
0.00030582959563
0.000299714779853
0.000293636349739
0.00028821635846
0.000283505417214
0.000279408647087
0.000275819455227
0.000272649354553
0.000269828975707
0.000267303506065
0.000265028487399
0.000262966913983
0.000261087380559
0.000259362898705
0.000257770101429
0.000256288666338
0.000254900863887
0.000253591182086
0.000252346003074
0.000251153319086
0.000250002480975
0.000248883974936
0.000247789224042
0.000246710412525
0.000245640327023
0.000244572212946
0.000243499646216
0.000242416417057
0.000241316420342
0.000240193552214
0.0002390416108
0.000237854199119
0.000236624628494
0.000235345821065
0.000234010210301
0.000232609638897
0.000231135254049
0.000229577401124
0.000227925518045
0.000226168034751
0.000224292284829
0.00022228444013
0.000220129483846
0.000217811243007
0.000215312506716
0.000212615260388
0.000209701065974
0.000206551610853
0.000203149430936
0.00019947878684
0.000195526641177
0.000191283661127
0.000186745166225
0.000181911961052
0.000176791022921
0.000171396027982
0.000165747675151
0.000159873720216
0.000153808604914
0.000147592583502
0.000141270300341
0.000134888866188
0.000128495648068
0.000122136171036
0.000115852556489
0.000109682601261
0.000103659478364
9.78119585456e-05
9.21648446443e-05
8.67393357196e-05
8.15531715161e-05
7.66205595916e-05
7.19519684304e-05
6.75538882441e-05
6.34286584694e-05
5.95744510975e-05
5.59854728199e-05
5.26524028382e-05
4.95630292101e-05
4.6703004951e-05
4.40566293607e-05
4.16075708495e-05
3.93394748122e-05
3.72364313142e-05
3.52833030601e-05
3.34659305425e-05
3.17712386601e-05
3.01872700436e-05
2.87031674916e-05
2.73091236251e-05
2.59963113716e-05
2.47568050044e-05
2.35834983098e-05
2.24700241387e-05
2.14106778987e-05
2.04003464058e-05
1.94344427234e-05
1.85088471353e-05
1.76198540769e-05
1.67641246838e-05
1.59386445096e-05
1.5140685942e-05
1.43677748245e-05
1.36176608284e-05
1.28882911278e-05
1.21777869848e-05
1.14844228724e-05
1.08066078156e-05
1.01428686552e-05
9.49183498847e-06
8.85222556945e-06
8.22283600696e-06
7.60252764327e-06
6.99021758678e-06
6.38486997878e-06
5.78548876686e-06
5.19111251708e-06
4.60081215885e-06
4.01369282911e-06
3.42890053981e-06
2.84563089242e-06
2.26312332112e-06
1.6805800301e-06
1.09683337575e-06
5.09405611653e-07
2.90650252439e-08
0.000296024962776
0.000298180759021
0.000296409199245
0.000292411336962
0.000287938878351
0.000283709452952
0.000279912912401
0.000276544006387
0.000273545639762
0.000270857589114
0.000268428987901
0.000266219143219
0.000264195489761
0.000262331423765
0.000260604658931
0.000258996105614
0.000257489131822
0.00025606907114
0.000254722881129
0.000253438890929
0.00025220660174
0.000251016519607
0.000249860009212
0.000248729162544
0.000247616679025
0.000246515756918
0.000245419988676
0.000244323263701
0.000243219678943
0.000242103454587
0.000240968851466
0.000239810090708
0.000238621274274
0.000237396305149
0.000236128805912
0.00023481203454
0.000233438796374
0.000232001351426
0.000230491316605
0.000228899563113
0.000227216110364
0.000225430019527
0.000223529292394
0.000221500785097
0.000219330151381
0.000217001836707
0.000214499151757
0.000211804460369
0.000208899519449
0.000205766002755
0.000202386222228
0.000198744028631
0.000194825833339
0.000190621660598
0.000186126133974
0.000181339331836
0.000176267496932
0.000170923610381
0.000165327803679
0.000159507503097
0.000153497151481
0.000147337373092
0.000141073495642
0.000134753430048
0.000128425143023
0.000122134265801
0.000115922412399
0.000109826300389
0.000103877626734
9.81035738449e-05
9.25275214055e-05
8.71695771994e-05
8.20467545909e-05
7.7172844087e-05
7.25581128521e-05
6.82089619728e-05
6.41276576142e-05
6.0312243712e-05
5.67567160388e-05
5.34514796503e-05
5.03840414851e-05
4.75398369755e-05
4.49030729473e-05
4.24574876568e-05
4.01869669527e-05
3.80759954816e-05
3.61099520464e-05
3.42752751376e-05
3.25595302262e-05
3.09514086766e-05
2.94406829026e-05
2.8018136293e-05
2.66754808922e-05
2.5405271394e-05
2.42008207477e-05
2.30561204058e-05
2.19657667505e-05
2.09248942779e-05
1.99291155498e-05
1.89744675915e-05
1.80573642453e-05
1.7174553919e-05
1.63230821527e-05
1.55002584493e-05
1.47036268485e-05
1.39309397689e-05
1.31801346892e-05
1.24493132798e-05
1.17367226398e-05
1.10407383283e-05
1.03598489114e-05
9.69264177634e-06
9.03778999418e-06
8.39404004396e-06
7.76020025136e-06
7.13512985029e-06
6.51772865061e-06
5.90692739105e-06
5.3016789445e-06
4.70095051148e-06
4.10371643724e-06
3.50894934267e-06
2.91560130015e-06
2.32255058716e-06
1.7284507269e-06
1.13134676249e-06
5.27874261457e-07
3.15389872787e-08
0.000286554986718
0.000289180001784
0.000288760044099
0.000286246146778
0.000282989838344
0.000279687218211
0.000276604460241
0.000273804390956
0.000271273062469
0.00026897518352
0.000266874575607
0.00026494010482
0.000263146329269
0.000261472581491
0.00025990183172
0.00025841973749
0.000257013944126
0.00025567359602
0.000254388999946
0.000253151390154
0.000251952758742
0.000250785726906
0.000249643441508
0.000248519487423
0.000247407809763
0.000246302645426
0.0002451984529
0.000244089846641
0.000242971536692
0.000241838268504
0.000240684762071
0.000239505650592
0.000238295417759
0.000237048332705
0.00023575838156
0.000234419194529
0.00023302396736
0.000231565376101
0.000230035484248
0.00022842564178
0.000226726376382
0.000224927278663
0.000223016885556
0.00022098257002
0.000218810450819
0.000216485344006
0.000213990787283
0.000211309178133
0.000208422072863
0.000205310690788
0.000201956648705
0.000198342912032
0.000194454895976
0.000190281603493
0.00018581667705
0.000181059288191
0.000176014871008
0.000170695753176
0.000165121683733
0.000159320124794
0.000153326092293
0.000147181369503
0.000140932963197
0.000134630710009
0.0001283242709
0.000122060299995
0.000115880585827
0.000109821212508
0.00010391265371
9.81806599821e-05
9.26473437951e-05
8.73319137021e-05
8.2250864405e-05
7.74177548099e-05
7.2842782128e-05
6.85323100241e-05
6.44884813819e-05
6.07090466842e-05
5.71875124708e-05
5.39136398219e-05
5.08742282833e-05
4.80540516301e-05
4.54367950826e-05
4.30058743797e-05
4.07450708115e-05
3.86389679838e-05
3.66732115132e-05
3.48346297187e-05
3.31112560178e-05
3.14922884174e-05
2.99680131756e-05
2.85297115405e-05
2.71695617248e-05
2.5880543359e-05
2.4656348294e-05
2.3491299501e-05
2.23802785257e-05
2.13186612446e-05
2.03022612969e-05
1.93272804257e-05
1.83902649153e-05
1.74880673581e-05
1.6617813034e-05
1.57768702703e-05
1.49628242146e-05
1.4173453531e-05
1.34067095837e-05
1.26606977325e-05
1.19336604026e-05
1.12239616375e-05
1.05300728644e-05
9.85055963996e-06
9.18406915638e-06
8.52931832037e-06
7.88508223148e-06
7.25018291448e-06
6.62347816771e-06
6.00385037017e-06
5.39019495102e-06
4.78140779639e-06
4.17636968305e-06
3.57392287094e-06
2.97282800132e-06
2.37167420849e-06
1.76868662537e-06
1.16133887888e-06
5.45690207015e-07
3.61680410631e-08
0.000279351561298
0.000282090486088
0.000282482478848
0.000281012757377
0.000278688139675
0.000276126099758
0.0002736206154
0.00027127983597
0.000269125071407
0.000267143684718
0.000265313174766
0.000263610755768
0.000262016457491
0.000260513617301
0.000259088474317
0.000257729561981
0.000256427149497
0.000255172798827
0.000253959035301
0.000252779109357
0.000251626824961
0.000250496414286
0.000249382443417
0.000248279738354
0.00024718332393
0.000246088373666
0.00024499015835
0.000243883997352
0.000242765217042
0.000241629106274
0.000240470870668
0.000239285585092
0.000238068143506
0.000236813205235
0.000235515136618
0.000234167946881
0.000232765216901
0.000231300019436
0.000229764829372
0.000228151422641
0.000226450763034
0.000224652877191
0.000222746720314
0.000220720038914
0.00021855924311
0.000216249310159
0.000213773753039
0.000211114701748
0.000208253156446
0.00020516947293
0.000201844122133
0.000198258718096
0.000194397237505
0.000190247284875
0.000185801238003
0.000181057176477
0.00017601962891
0.00017070026348
0.00016511856789
0.000159302343487
0.000153287702544
0.000147118351983
0.000140844002286
0.000134517627221
0.000128191751235
0.000121914977651
0.000115729906649
0.000109672345025
0.000103771668748
9.80522326243e-05
9.2534968215e-05
8.72383607284e-05
8.21786058865e-05
7.73692370552e-05
7.28205365629e-05
6.85389069182e-05
6.45263378755e-05
6.07801309445e-05
5.72930231141e-05
5.40537523085e-05
5.10479760066e-05
4.82593625102e-05
4.56706592552e-05
4.32645924197e-05
4.10245280697e-05
3.89348919676e-05
3.69813863099e-05
3.5151057145e-05
3.34322643324e-05
3.18145956638e-05
3.0288754678e-05
2.88464410864e-05
2.74802347781e-05
2.61834889791e-05
2.4950234802e-05
2.37750974962e-05
2.26532237188e-05
2.15802186969e-05
2.05520920328e-05
1.95652109279e-05
1.86162597214e-05
1.77022047633e-05
1.68202637891e-05
1.59678790784e-05
1.51426937971e-05
1.43425310069e-05
1.3565374912e-05
1.28093539642e-05
1.20727255103e-05
1.13538616926e-05
1.06512363581e-05
9.96341274225e-06
9.28903172243e-06
8.62680043653e-06
7.97548106799e-06
7.33387957422e-06
6.70083407849e-06
6.07520249257e-06
5.45584859769e-06
4.84162504839e-06
4.23135012919e-06
3.62377166035e-06
3.01750458576e-06
2.41091619255e-06
1.80191413078e-06
1.18757843101e-06
5.63611017818e-07
4.33654059522e-08
0.000273718399307
0.000276409788929
0.000277285136031
0.000276550406458
0.000274941490416
0.000272978255178
0.000270950528852
0.00026899162905
0.000267148991545
0.000265429382059
0.000263823054379
0.000262315243428
0.000260891054681
0.000259537206798
0.000258242394996
0.000256997118472
0.000255793349515
0.000254624199192
0.00025348363309
0.00025236624719
0.000251267097482
0.000250181572254
0.000249105296153
0.000248034056933
0.000246963748437
0.000245890324912
0.000244809758283
0.000243717996652
0.000242610932405
0.00024148436664
0.000240333972619
0.000239155257122
0.000237943518675
0.000236693801632
0.000235400844924
0.000234059024134
0.00023266228532
0.000231204068759
0.000229677220526
0.000228073889708
0.0002263854092
0.000224602158746
0.0002227134107
0.000220707162643
0.000218569967459
0.000216286781944
0.000213840870158
0.000211213816637
0.000208385723072
0.000205335670486
0.000202042512327
0.000198486007452
0.000194648205235
0.000190514891121
0.000186076860958
0.000181330887026
0.000176280451636
0.000170936489103
0.000165318269277
0.000159454179162
0.000153381924763
0.000147147909907
0.00014080566961
0.000134412732974
0.000128025847307
0.000121696571252
0.000115468964495
0.00010937886262
0.00010345454586
9.77188825868e-05
9.21916510446e-05
8.68907954005e-05
8.18324577221e-05
7.7030371067e-05
7.24950708645e-05
6.82330835968e-05
6.42462151227e-05
6.05311438684e-05
5.70795191649e-05
5.38786273786e-05
5.09125016256e-05
4.81632266003e-05
4.56121806709e-05
4.32410372342e-05
4.10324548417e-05
3.89704718212e-05
3.70406675533e-05
3.5230164371e-05
3.35275351545e-05
3.19226649396e-05
3.04065980996e-05
2.89713894085e-05
2.76099681194e-05
2.63160185258e-05
2.50838772797e-05
2.3908446169e-05
2.27851184324e-05
2.17097165763e-05
2.06784397994e-05
1.96878193677e-05
1.87346805355e-05
1.78161098538e-05
1.69294269094e-05
1.60721597164e-05
1.52420231183e-05
1.44368996771e-05
1.36548226104e-05
1.28939604113e-05
1.215260284e-05
1.14291480152e-05
1.07220903678e-05
1.0030009234e-05
9.35155787981e-06
8.68545273764e-06
8.0304626154e-06
7.38539757124e-06
6.74909701923e-06
6.12041637171e-06
5.49821101784e-06
4.88131546009e-06
4.26851356373e-06
3.65849241049e-06
3.04976615727e-06
2.44054679949e-06
1.82852772346e-06
1.21054417324e-06
5.82107781688e-07
5.34009430096e-08
0.000269220583574
0.000271795132623
0.000272951705129
0.000272733641105
0.000271673946171
0.000270196541198
0.000268568956787
0.000266934097321
0.000265356647459
0.000263858751698
0.000262441944313
0.00026109906933
0.000259820200418
0.000258595313538
0.000257415322035
0.00025627234031
0.000255159617027
0.000254071351277
0.000253002488542
0.000251948535742
0.000250905407481
0.000249869303624
0.000248836613735
0.000247803842737
0.00024676755449
0.000245724324807
0.00024467070099
0.000243603163773
0.000242518098304
0.000241411763036
0.000240280257935
0.000239119490775
0.000237925140307
0.000236692615113
0.000235417006775
0.000234093035796
0.000232714988401
0.000231276641917
0.000229771176021
0.000228191066665
0.00022652795926
0.000224772517903
0.000222914248714
0.000220941298566
0.000218840237067
0.000216595841253
0.000214190920752
0.000211606246257
0.000208820672069
0.000205811562726
0.000202555623402
0.000199030168361
0.000195214731381
0.000191092764321
0.000186653089653
0.000181890896447
0.000176808406325
0.000171415640174
0.00016573158216
0.000159785388288
0.000153616848478
0.000147275862361
0.000140821069182
0.000134316346441
0.000127824368575
0.000121400804364
0.00011509189975
0.000108933833542
0.000102953660233
9.71725220448e-05
9.16090251719e-05
8.62807926415e-05
8.12041958803e-05
7.63933997504e-05
7.18593514658e-05
6.76087714225e-05
6.36432226241e-05
5.99585334294e-05
5.65448679627e-05
5.33875386863e-05
5.04683829699e-05
4.77673558952e-05
4.52639962239e-05
4.29385492702e-05
4.07726823359e-05
3.87498381039e-05
3.68553213256e-05
3.5076218299e-05
3.34012294081e-05
3.18204696492e-05
3.03252698571e-05
2.89079952685e-05
2.75618878942e-05
2.62809334368e-05
2.50597507066e-05
2.38935004048e-05
2.27778100089e-05
2.17087117668e-05
2.06825912556e-05
1.96961444067e-05
1.87463413196e-05
1.78303955236e-05
1.69457376313e-05
1.6089992543e-05
1.52609595355e-05
1.44565946972e-05
1.36749952758e-05
1.29143855786e-05
1.2173104125e-05
1.14495917915e-05
1.07423807194e-05
1.00500837682e-05
9.37138430002e-06
8.70502605803e-06
8.04980285342e-06
7.40454767233e-06
6.76812062814e-06
6.1393948403e-06
5.51723870958e-06
4.90049196474e-06
4.2879309497e-06
3.67821540074e-06
3.06980392624e-06
2.4608186741e-06
1.84883393399e-06
1.23056701454e-06
6.01476270772e-07
6.64316854182e-08
0.00026557501031
0.000268006889118
0.000269318982617
0.000269462882437
0.000268823602562
0.000267740064812
0.000266449131394
0.000265092475343
0.000263744423375
0.000262438320905
0.000261185063725
0.000259984382624
0.000258831121481
0.00025771848181
0.000256639565441
0.000255588015451
0.000254558205669
0.00025354522092
0.000252544753014
0.000251552973846
0.000250566413413
0.000249581853471
0.000248596239191
0.000247606607309
0.000246610031162
0.000245603573157
0.000244584242801
0.000243548961332
0.000242494532508
0.000241417613183
0.000240314683557
0.0002391820158
0.000238015639721
0.00023681130412
0.0002355644323
0.000234270069926
0.000232922823029
0.000231516783412
0.000230045438008
0.000228501557996
0.000226877062712
0.000225162853031
0.000223348609383
0.000221422552108
0.000219371168079
0.000217178919931
0.000214827975696
0.00021229802888
0.000209566319291
0.00020660800051
0.000203397002493
0.000199907466794
0.000196115658713
0.000192002021528
0.000187552882189
0.000182761464722
0.000177628392719
0.000172162419255
0.00016638199151
0.000160317131257
0.000154010218382
0.000147515466542
0.000140898108949
0.000134230811301
0.000127584463159
0.000121020209407
0.000114587394792
0.000108322976875
0.000102252494826
9.63949267541e-05
9.07676569077e-05
8.53882865146e-05
8.02737362678e-05
7.54388012841e-05
7.08949418176e-05
6.66490843394e-05
6.27024209522e-05
5.90496039699e-05
5.56787826087e-05
5.25726256993e-05
4.97100685853e-05
4.70682901039e-05
4.46244603629e-05
4.23570005719e-05
4.02463096921e-05
3.82750496101e-05
3.64281294619e-05
3.46925201601e-05
3.3056996004e-05
3.15118640533e-05
3.00487135038e-05
2.86601985529e-05
2.73398574167e-05
2.60819647931e-05
2.48814129436e-05
2.37336162124e-05
2.2634434244e-05
2.15801099126e-05
2.05672187445e-05
1.95926273121e-05
1.86534586436e-05
1.77470631474e-05
1.68709938966e-05
1.6022985384e-05
1.52009350562e-05
1.44028870838e-05
1.36270179351e-05
1.28716234049e-05
1.21351068063e-05
1.14159680772e-05
1.07127935795e-05
1.0024246377e-05
9.3490567704e-06
8.68601283549e-06
8.03395063616e-06
7.39174365614e-06
6.75829076045e-06
6.13250160377e-06
5.51327773206e-06
4.89948650585e-06
4.28992315289e-06
3.6832534389e-06
3.07792547306e-06
2.47203463697e-06
1.86312308198e-06
1.24790032168e-06
6.21890233434e-07
8.25152188691e-08
0.00026259001182
0.000264873444736
0.000266261962876
0.000266657722488
0.000266339198954
0.000265574130114
0.000264566505794
0.000263449997232
0.00026230263241
0.000261165111784
0.00026005560161
0.000258979742494
0.000257936772516
0.000256923018718
0.000255933767252
0.000254964193213
0.000254009770471
0.000253066407491
0.000252130447759
0.000251198610221
0.000250267909134
0.000249335572689
0.000248398968905
0.000247455541462
0.000246502758792
0.000245538068963
0.000244558855884
0.000243562406763
0.000242545882206
0.000241506287343
0.000240440442844
0.000239344954504
0.000238216179997
0.000237050191352
0.000235842731452
0.000234589162525
0.00023328440412
0.0002319228573
0.000230498310887
0.000229003824438
0.00022743158132
0.000225772704122
0.000224017024142
0.000222152798119
0.000220166370686
0.000218041793613
0.000215760437118
0.000213300668646
0.000210637730478
0.000207744006668
0.000204589896434
0.000201145442904
0.000197382642374
0.000193278000227
0.000188814608147
0.000183983161495
0.000178782136399
0.000173218354494
0.000167309138402
0.000161085323812
0.000154592445888
0.000147889820177
0.000141050977643
0.000134160949617
0.000127302122336
0.000120542721238
0.000113936490694
0.000107521968742
0.000101322658433
9.53546374028e-05
8.96340039523e-05
8.41787670752e-05
7.9006711677e-05
7.41333242767e-05
6.95705229836e-05
6.53253182982e-05
6.13982706251e-05
5.77823675703e-05
5.44630142013e-05
5.1419355023e-05
4.86265333252e-05
4.60581759736e-05
4.36884871889e-05
4.14936506169e-05
3.94525365371e-05
3.75468763632e-05
3.57611057357e-05
3.40820448819e-05
3.24985300462e-05
3.10010602328e-05
2.95814884987e-05
2.82327660348e-05
2.69487364886e-05
2.57239734897e-05
2.45536533069e-05
2.3433455134e-05
2.23594826953e-05
2.13282021306e-05
2.03363922718e-05
1.93811043548e-05
1.84596289554e-05
1.75694684883e-05