/*--------------------------------*- C++ -*----------------------------------*\
  =========                 |
  \\      /  F ield         | OpenFOAM: The Open Source CFD Toolbox
   \\    /   O peration     | Website:  https://openfoam.org
    \\  /    A nd           | Version:  7
     \\/     M anipulation  |
\*---------------------------------------------------------------------------*/
FoamFile
{
    version     2.0;
    format      ascii;
    class       surfaceScalarField;
    location    "1440";
    object      phi;
}
// * * * * * * * * * * * * * * * * * * * * * * * * * * * * * * * * * * * * * //

dimensions      [0 3 -1 0 0 0 0];

internalField   nonuniform List<scalar> 
16192
(
6.92908013621e-10
2.44591986379e-10
4.93533091917e-10
1.99374920519e-10
3.64790279377e-10
1.28742811335e-10
2.82212365562e-10
8.2577912592e-11
2.27601673419e-10
5.46106908361e-11
1.90012438763e-10
3.75892333e-11
1.63099868489e-10
2.69125689047e-11
1.43149466491e-10
1.99504006467e-11
1.27925539321e-10
1.52239258514e-11
1.16034654715e-10
1.18908833326e-11
1.06575750998e-10
9.45890249406e-12
9.89449690814e-11
7.63078075185e-12
9.27240855812e-11
6.22088239426e-12
8.76148382297e-11
5.10924631064e-12
8.3399041173e-11
4.21579608072e-12
7.99135955403e-11
3.48544472875e-12
7.70343562145e-11
2.87923849384e-12
7.46654200789e-11
2.36893538416e-12
7.27318283819e-11
1.93359102638e-12
7.11744777843e-11
1.55735001785e-12
6.99464965788e-11
1.22798071721e-12
6.90106159132e-11
9.35880280004e-13
6.8337231352e-11
6.73384279087e-13
6.79029531186e-11
4.34278067377e-13
6.76895084974e-11
2.13444572001e-13
6.76829023106e-11
6.60626838102e-15
6.78727690942e-11
-1.89866570667e-13
6.82518683708e-11
-3.79098916833e-13
6.88156887232e-11
-5.63819845077e-13
6.95621353412e-11
-7.46445946241e-13
7.04912795188e-11
-9.29143340453e-13
7.16051530236e-11
-1.11387248351e-12
7.29075724232e-11
-1.30241819302e-12
7.44039798117e-11
-1.4964059759e-12
7.61012862294e-11
-1.69730479763e-12
7.80077036569e-11
-1.90641557754e-12
8.013254983e-11
-2.12484409176e-12
8.24860085918e-11
-2.35345642555e-12
8.50788261279e-11
-2.59281494408e-12
8.7921921854e-11
-2.8430928547e-12
9.10258912632e-11
-3.10396626017e-12
9.44003788704e-11
-3.37448415879e-12
9.80533022754e-11
-3.65291966345e-12
1.01989916049e-10
-3.93660972181e-12
1.0621171649e-10
-4.22179609283e-12
1.10715207709e-10
-4.50348656314e-12
1.1549057428e-10
-4.77536163333e-12
1.20520335602e-10
-5.02975610029e-12
1.25778086203e-10
-5.25774513331e-12
1.31227449986e-10
-5.44935808099e-12
1.36821385707e-10
-5.59392983979e-12
1.42501972306e-10
-5.68058056593e-12
1.4820077359e-10
-5.69879517768e-12
1.53839840598e-10
-5.63906087848e-12
1.59333365827e-10
-5.49351918175e-12
1.64589968457e-10
-5.25659674102e-12
1.69515561917e-10
-4.92558786137e-12
1.74016725343e-10
-4.50115821263e-12
1.78004449474e-10
-3.98771945325e-12
1.81398050327e-10
-3.3935968164e-12
1.841289501e-10
-2.73089653471e-12
1.86143947676e-10
-2.01499524001e-12
1.87407578294e-10
-1.26362932841e-12
1.87903234354e-10
-4.95655879713e-13
1.87632898821e-10
2.70334520479e-13
1.86615600521e-10
1.01729612709e-12
1.84884955364e-10
1.73064185223e-12
1.82486271634e-10
2.39867942535e-12
1.79473698843e-10
3.01256758524e-12
1.75907784137e-10
3.5659087641e-12
1.71853593289e-10
4.05418427351e-12
1.67379347595e-10
4.4742386397e-12
1.6255538928e-10
4.82395087443e-12
1.57453247345e-10
5.10213424812e-12
1.52144614335e-10
5.30862515978e-12
1.46700130492e-10
5.4444759559e-12
1.41187969954e-10
5.51215268169e-12
1.3567231323e-10
5.51564899705e-12
1.30211850516e-10
5.46045516003e-12
1.24858482524e-10
5.35336068201e-12
1.19656364488e-10
5.20211099069e-12
1.14641386393e-10
5.01497136107e-12
1.09841113389e-10
4.80026658228e-12
1.05275146167e-10
4.56596114201e-12
1.00955813806e-10
4.31932660837e-12
9.68890893595e-11
4.06671903538e-12
9.30756174048e-11
3.81346686303e-12
8.95117586337e-11
3.56385400156e-12
8.61905796303e-11
3.3211745281e-12
8.31027415222e-11
3.08783392424e-12
8.02372631012e-11
2.86547449903e-12
7.75821517765e-11
2.65510765993e-12
7.51249073478e-11
2.45724099287e-12
7.28529111707e-11
2.27199296625e-12
7.0753716422e-11
2.09919173727e-12
6.881525638e-11
1.9384572279e-12
6.70259865153e-11
1.78926722588e-12
6.53749748164e-11
1.65100923498e-12
6.38519523859e-11
1.52302012223e-12
6.24473345158e-11
1.40461571857e-12
6.11522201733e-11
1.29511233083e-12
5.99583763598e-11
1.19384194312e-12
5.88582120469e-11
1.10016256869e-12
5.78447454225e-11
1.01346500797e-12
5.69115669281e-11
9.33176991772e-13
5.60527999948e-11
8.58765545849e-13
5.52630604917e-11
7.89738217652e-13
5.45374155678e-11
7.25643741451e-13
5.38713418693e-11
6.66072606893e-13
5.32606828603e-11
6.10658008866e-13
5.27016043068e-11
5.59077633419e-13
5.21905466279e-11
5.11056839544e-13
5.17241719644e-11
4.66373894121e-13
5.12993030877e-11
4.24868177941e-13
5.09128498388e-11
3.86452611067e-13
5.05617171034e-11
3.5113215911e-13
5.02426853895e-11
3.19031190317e-13
4.99522508872e-11
2.90434032486e-13
4.96864047994e-11
2.65845664146e-13
4.94403204299e-11
2.4608399443e-13
4.92078971786e-11
2.32422920247e-13
4.89810784371e-11
2.26818461525e-13
4.87488079593e-11
2.32270252363e-13
4.8495417303e-11
2.53390503352e-13
4.81981981048e-11
2.97219132085e-13
4.78243148674e-11
3.73883277456e-13
4.73298402243e-11
4.94474777103e-13
6.34450709225e-13
9.53393315876e-10
2.2869866944e-10
8.59614811532e-10
2.9315342242e-10
7.45068431805e-10
2.43289188545e-10
6.4190413349e-10
1.85742208255e-10
5.56749540874e-10
1.39765280674e-10
4.8840074448e-10
1.05938026867e-10
4.33833459435e-10
8.14798511307e-11
3.90092715964e-10
6.36911413452e-11
3.54763050861e-10
5.05535882501e-11
3.25986404421e-10
4.06675271547e-11
3.02362267059e-10
3.30830373325e-11
2.82837873401e-10
2.715517199e-11
2.66617445447e-10
2.24413080377e-11
2.53093839649e-10
1.86328499149e-11
2.41798887311e-10
1.55107463468e-11
2.32367743889e-10
1.29165862104e-11
2.24513298059e-10
1.07336825186e-11
2.18007690422e-10
8.87454136356e-12
2.12668842644e-10
7.27243730017e-12
2.08350532626e-10
5.87565869689e-12
2.04934999551e-10
4.64351262646e-12
2.02327372363e-10
3.54350648791e-12
2.00451427185e-10
2.54932867042e-12
1.99246324505e-10
1.63938017012e-12
1.98664076669e-10
7.95692046069e-13
1.98667565374e-10
3.1174347532e-15
1.99228976451e-10
-7.51277534005e-13
2.00328551973e-10
-1.47867406602e-12
2.01953586185e-10
-2.18885341447e-12
2.04097606888e-10
-2.89046571834e-12
2.06759693783e-10
-3.59122900207e-12
2.0994389322e-10
-4.29807036491e-12
2.13658693233e-10
-5.01721631269e-12
2.17916525014e-10
-5.7542355017e-12
2.22733257096e-10
-6.51403424633e-12
2.28127647455e-10
-7.30080289799e-12
2.34120716258e-10
-8.11790943247e-12
2.40734999306e-10
-8.96773555966e-12
2.47993639241e-10
-9.85145049667e-12
2.5591927009e-10
-1.07687188223e-11
2.64532651183e-10
-1.1717341962e-11
2.73851011652e-10
-1.2692838701e-11
2.83886077614e-10
-1.36879791574e-11
2.94641774349e-10
-1.46922994324e-11
3.06111626022e-10
-1.56916401916e-11
3.18275918024e-10
-1.66677704382e-11
3.31098739358e-10
-1.7598174314e-11
3.44525081502e-10
-1.84560890801e-11
3.58478225952e-10
-1.92108799573e-11
3.72857694713e-10
-1.98288167995e-11
3.87538051706e-10
-2.02742764563e-11
4.0236882047e-10
-2.05113387046e-11
4.1717572229e-10
-2.05056862543e-11
4.31763351502e-10
-2.02266793676e-11
4.45919308899e-10
-1.96494660632e-11
4.59419728737e-10
-1.87570064631e-11
4.72036060211e-10
-1.75419098581e-11
4.83542884709e-10
-1.60079741057e-11
4.93726438712e-10
-1.41712659958e-11
5.02393362342e-10
-1.20605143773e-11
5.09379028568e-10
-9.7165583538e-12
5.14554686002e-10
-7.1906501468e-12
5.17832634971e-10
-4.54157784849e-12
5.19168816025e-10
-1.83183865875e-12
5.18562540869e-10
8.7660575841e-13
5.16053576735e-10
3.52625426061e-12
5.11717258655e-10
6.06695202487e-12
5.05658538714e-10
8.4573898166e-12
4.98005893259e-10
1.06652021024e-11
4.88905803182e-10
1.26659867946e-11
4.78518155963e-10
1.44418185691e-11
4.67012543307e-10
1.59798377411e-11
4.54565167529e-10
1.72713126692e-11
4.41355979438e-10
1.83113081449e-11
4.2756572517e-10
1.90988651987e-11
4.13372723635e-10
1.96374634053e-11
3.98949371113e-10
1.99354913901e-11
3.84458532384e-10
2.00064743118e-11
3.70050091325e-10
1.98688832789e-11
3.55857976363e-10
1.95454632548e-11
3.41997939836e-10
1.90621357112e-11
3.28566272827e-10
1.84466271854e-11
3.15639507726e-10
1.77270211209e-11
3.03275036496e-10
1.69304224438e-11
2.91512478267e-10
1.60818755209e-11
2.8037557976e-10
1.52036088281e-11
2.69874423061e-10
1.43146154152e-11
2.60007738881e-10
1.34305305804e-11
2.50765164589e-10
1.25637417229e-11
2.42129334232e-10
1.17236576612e-11
2.34077732262e-10
1.09170702856e-11
2.26584280134e-10
1.01485540159e-11
2.19620652303e-10
9.42086342461e-12
2.13157336945e-10
8.73530328014e-12
2.0716446725e-10
8.09205670906e-12
2.01612454452e-10
7.490465611e-12
1.96472454349e-10
6.92926319634e-12
1.91716697758e-10
6.40676196456e-12
1.8731871199e-10
5.92100227955e-12
1.83253456987e-10
5.46986735441e-12
1.79497395728e-10
5.05117044888e-12
1.76028515124e-10
4.66271962592e-12
1.72826310164e-10
4.30236481196e-12
1.69871741445e-10
3.96803120948e-12
1.67147173616e-10
3.65774248778e-12
1.64636300417e-10
3.3696365907e-12
1.62324060094e-10
3.10197655229e-12
1.60196543674e-10
2.85315833318e-12
1.58240897139e-10
2.62171746112e-12
1.56445217502e-10
2.406336107e-12
1.54798441498e-10
2.20585222867e-12
1.53290224542e-10
2.01927251058e-12
1.51910806162e-10
1.84579110332e-12
1.50650856688e-10
1.68481659032e-12
1.49501298049e-10
1.53601028761e-12
1.4845308942e-10
1.39933992087e-12
1.47496965775e-10
1.27515405684e-12
1.46623114715e-10
1.16428439967e-12
1.45820774568e-10
1.06818520083e-12
1.45077737007e-10
9.89121033115e-13
1.44379745284e-10
9.30414213953e-13
1.43709808419e-10
8.96755005511e-13
1.43047536323e-10
8.9454215387e-13
1.423688279e-10
9.32098881691e-13
1.41646844087e-10
1.01920305493e-12
1.40856672948e-10
1.16405465249e-12
1.39990834943e-10
1.36031305303e-12
1.54005831379e-12
9.76219089588e-10
1.89979578649e-10
9.62972069162e-10
3.06400440083e-10
9.06072414355e-10
3.00188840564e-10
8.33685075703e-10
2.58129544081e-10
7.60805427284e-10
2.12644926174e-10
6.93845232654e-10
1.7289821854e-10
6.34875599707e-10
1.40449481127e-10
5.8400127493e-10
1.14565463211e-10
5.40539456761e-10
9.40154035627e-11
5.03568962539e-10
7.76380185906e-11
4.72168751965e-10
6.44832451973e-11
4.45509650762e-10
5.3814270569e-11
4.22879730218e-10
4.50712260474e-11
4.03681692355e-10
3.78308853422e-11
3.87419990936e-10
3.17724454303e-11
3.73685539483e-10
2.66510354395e-11
3.62141224614e-10
2.22779952772e-11
3.52509332268e-10
1.85064317245e-11
3.44561077238e-10
1.52206904737e-11
3.38108063577e-10
1.23286706448e-11
3.32995389534e-10
9.75618510027e-12
3.29096102952e-10
7.44279166083e-12
3.26306744932e-10
5.33868544268e-12
3.24543762462e-10
3.40236157231e-12
3.2374061168e-10
1.59884194117e-12
3.23845408969e-10
-1.01680542684e-13
3.24819014866e-10
-1.72488391755e-12
3.266334576e-10
-3.29311706422e-12
3.29270624763e-10
-4.82602061791e-12
3.32721159345e-10
-6.34100009287e-12
3.36983505841e-10
-7.85357504042e-12
3.42063058459e-10
-9.37762224762e-12
3.47971366426e-10
-1.09255232623e-11
3.54725352847e-10
-1.25082205926e-11
3.62346502653e-10
-1.41351824035e-11
3.70859973581e-10
-1.58142718249e-11
3.80293581004e-10
-1.75515144927e-11
3.90676604766e-10
-1.93507565618e-11
4.02038363516e-10
-2.12132060792e-11
4.14406501962e-10
-2.31368536574e-11
4.27804939348e-10
-2.51157752869e-11
4.42251436765e-10
-2.7139331573e-11
4.57754757818e-10
-2.91912951803e-11
4.74311425755e-10
-3.12489618282e-11
4.91902121173e-10
-3.3282329567e-11
5.10487820202e-10
-3.52534629059e-11
5.30005840354e-10
-3.71161874154e-11
5.5036603592e-10
-3.88162771042e-11
5.71447454516e-10
-4.02922905684e-11
5.93095818023e-10
-4.14771719006e-11
6.15122206025e-10
-4.23006557148e-11
6.37303287264e-10
-4.26924109159e-11
6.5938336051e-10
-4.25857503185e-11
6.81078346364e-10
-4.19216559872e-11
7.02081738925e-10
-4.06528495224e-11
7.22072408269e-10
-3.87476669912e-11
7.40724044043e-10
-3.61935373405e-11
7.57715928577e-10
-3.29998510687e-11
7.72744588001e-10
-2.91999188425e-11
7.85535682479e-10
-2.48516034882e-11
7.95855291529e-10
-2.00361635248e-11
8.035196008e-10
-1.48549572171e-11
8.08401980991e-10
-9.42395773214e-12
8.10436647918e-10
-3.86650724578e-12
8.09618539625e-10
1.69471037656e-12
8.05999670239e-10
7.1451180822e-12
7.99682816128e-10
1.23837988294e-11
7.90813703224e-10
1.73264939451e-11
7.79572879705e-10
2.19060156025e-11
7.66168198998e-10
2.60706565206e-11
7.50828373441e-10
2.97816323836e-11
7.33797583644e-10
3.30106152785e-11
7.15330804147e-10
3.57380795636e-11
6.95689400332e-10
3.79526992301e-11
6.75136623673e-10
3.96516291488e-11
6.53932808819e-10
4.0841265752e-11
6.32330287222e-10
4.15380007819e-11
6.10568229957e-10
4.17685197989e-11
5.88867771405e-10
4.15693305327e-11
5.67427816872e-10
4.09854070423e-11
5.46421889325e-10
4.006805308e-11
5.25996244989e-10
3.88722619465e-11
5.06269322196e-10
3.74539349281e-11
4.8733242925e-10
3.58673070059e-11
4.69251456743e-10
3.4162840211e-11
4.52069335033e-10
3.23857232811e-11
4.35808944489e-10
3.05749992163e-11
4.20476213804e-10
2.87632550179e-11
4.06063191738e-10
2.69767579879e-11
3.92550936912e-10
2.523590711e-11
3.79912126293e-10
2.35558759043e-11
3.68113331091e-10
2.19473445741e-11
3.5711694506e-10
2.04172451259e-11
3.46882776113e-10
1.89694681965e-11
3.37369327894e-10
1.7605501163e-11
3.28534806842e-10
1.63249831532e-11
3.20337893147e-10
1.512617361e-11
3.12738313784e-10
1.40063382688e-11
3.05697252855e-10
1.29620603496e-11
2.99177630837e-10
1.19894867126e-11
2.9314427973e-10
1.10845190748e-11
2.87564037019e-10
1.02429600345e-11
2.82405777007e-10
9.46062268348e-12
2.77640394651e-10
8.73341158675e-12
2.73240753558e-10
8.05738174886e-12
2.69181607213e-10
7.42878124915e-12
2.65439499906e-10
6.84408230359e-12
2.61992651934e-10
6.30000487976e-12
2.58820831668e-10
5.79353641789e-12
2.55905215648e-10
5.32195093351e-12
2.53228236218e-10
4.88283056676e-12
2.50773415022e-10
4.47409271655e-12
2.48525179184e-10
4.0940260402e-12
2.46468655959e-10
3.74133900184e-12
2.44589440421e-10
3.41522508914e-12
2.42873330294e-10
3.11544938854e-12
2.41306022231e-10
2.84246152702e-12
2.39872766363e-10
2.5975397438e-12
2.38557982321e-10
2.38296878089e-12
2.37344854914e-10
2.20224804817e-12
2.36214958547e-10
2.06031026279e-12
2.35148022011e-10
1.96369131692e-12
2.34122066658e-10
1.9204973963e-12
2.33114380331e-10
1.93978524589e-12
2.32104183861e-10
2.02939971428e-12
2.31078453365e-10
2.18978543829e-12
2.30041321292e-10
2.39744542755e-12
2.56526475672e-12
9.71759508809e-10
1.55720068543e-10
9.86654917504e-10
2.91505028308e-10
9.68124660804e-10
3.18719094223e-10
9.27787950373e-10
2.98466251373e-10
8.77501250089e-10
2.62931623197e-10
8.24788861895e-10
2.25610603421e-10
7.73802852664e-10
1.91435487039e-10
7.26578332018e-10
1.61789980559e-10
6.83930753102e-10
1.36662979216e-10
6.46012629949e-10
1.15556138527e-10
6.12639313903e-10
9.78565580776e-11
5.83472742599e-10
8.29808387653e-11
5.58121686807e-10
7.04222787922e-11
5.36194199924e-10
5.97583692466e-11
5.173232779e-10
5.06433645458e-11
5.01177831626e-10
4.27964788814e-11
4.8746584015e-10
3.59899840026e-11
4.759335312e-10
3.00387380103e-11
4.66362710324e-10
2.47915087771e-11
4.58567383834e-10
2.01239946603e-11
4.52390273112e-10
1.59332934495e-11
4.47699513901e-10
1.21335486082e-11
4.44385667903e-10
8.65252928953e-12
4.42359085215e-10
5.42894222989e-12
4.41547610247e-10
2.41031500265e-12
4.4189460166e-10
-4.4867373066e-13
4.43357225392e-10
-3.18750928757e-12
4.45904978437e-10
-5.84087160153e-12
4.49518405452e-10
-8.43944897306e-12
4.54187962721e-10
-1.10105585397e-11
4.59912988525e-10
-1.35786018526e-11
4.66700739094e-10
-1.61653736393e-11
4.74565448418e-10
-1.87902332136e-11
4.83527368618e-10
-2.1470141206e-11
4.93611744851e-10
-2.42195588193e-11
5.04847675587e-10
-2.70502024922e-11
5.1726680541e-10
-2.99706439735e-11
5.3090179429e-10
-3.29857447988e-11
5.45784505113e-10
-3.60959159344e-11
5.61943851772e-10
-3.9296198992e-11
5.79403254693e-10
-4.25751764996e-11
5.98177662024e-10
-4.59137367813e-11
6.18270115038e-10
-4.92837456302e-11
6.39667868945e-10
-5.26467127013e-11
6.62338127324e-10
-5.59525844224e-11
6.86223511364e-10
-5.91388429086e-11
7.11237461996e-10
-6.21301334874e-11
7.37259858431e-10
-6.48386684462e-11
7.6413321815e-10
-6.71656446679e-11
7.91659904225e-10
-6.90038518381e-11
8.19600784559e-10
-7.02415294295e-11
8.47675747898e-10
-7.07673671995e-11
8.7556637801e-10
-7.04763730199e-11
9.02920937158e-10
-6.92762074722e-11
9.29361646346e-10
-6.70935509376e-11
9.54494109834e-10
-6.38801227656e-11
9.77918625502e-10
-5.96180455633e-11
9.9924302246e-10
-5.43242410756e-11
1.01809652032e-09
-4.80534105026e-11
1.03414388712e-09
-4.08989650939e-11
1.04709892334e-09
-3.29911958354e-11
1.05673610599e-09
-2.44921374713e-11
1.06289918093e-09
-1.55870319918e-11
1.0655056925e-09
-6.47301999151e-12
1.06454696517e-09
2.65343464952e-12
1.06008382965e-09
1.16082487593e-11
1.05223912941e-09
2.02284926201e-11
1.04118842894e-09
2.83771866356e-11
1.02715035526e-09
3.59440804325e-11
1.01037767783e-09
4.28433242853e-11
9.91149653215e-10
4.90096467425e-11
9.69765574339e-10
5.43946835169e-11
9.46539088633e-10
5.89645544343e-11
9.21792755202e-10
6.26990218117e-11
8.95852423821e-10
6.55919498237e-11
8.69041234026e-10
6.76524451288e-11
8.41673277476e-10
6.89059473058e-11
8.14047193302e-10
6.93945944261e-11
7.8644012667e-10
6.91763881444e-11
7.59102536792e-10
6.83229884655e-11
7.32254278122e-10
6.69163038698e-11
7.06082222281e-10
6.50443104887e-11
6.80739487698e-10
6.27966627796e-11
6.56346154998e-10
6.02606335282e-11
6.32991207484e-10
5.75177820699e-11
6.10735364361e-10
5.46415612431e-11
5.89614463912e-10
5.16958949579e-11
5.69643088603e-10
4.87346260381e-11
5.50818183477e-10
4.58016591995e-11
5.33122486903e-10
4.29316001089e-11
5.16527656392e-10
4.01507031389e-11
5.00997026049e-10
3.74779719084e-11
4.86487973347e-10
3.4926295055e-11
4.72953902206e-10
3.25035367761e-11
4.60345868025e-10
3.02135329688e-11
4.48613881012e-10
2.80569679617e-11
4.37707928641e-10
2.60321239298e-11
4.27578758656e-10
2.41355063456e-11
4.181784618e-10
2.23623554277e-11
4.09460889924e-10
2.07070569368e-11
4.01381940692e-10
1.9163466769e-11
3.93899735728e-10
1.77251635738e-11
3.86974714534e-10
1.63856425566e-11
3.80569662653e-10
1.5138462249e-11
3.74649688779e-10
1.39773544987e-11
3.6918216248e-10
1.2896306516e-11
3.64136621321e-10
1.1889622516e-11
3.59484653889e-10
1.09519714478e-11
3.55199763079e-10
1.00784264399e-11
3.51257212304e-10
9.26450099344e-12
3.47633855692e-10
8.50618653065e-12
3.44307952118e-10
7.79999570634e-12
3.41258961837e-10
7.1430157948e-12
3.38467323896e-10
6.53297647182e-12
3.35914212352e-10
5.96833621252e-12
3.33581270247e-10
5.44839112046e-12
3.31450322707e-10
4.97340873776e-12
3.29503075813e-10
4.54478635286e-12
3.27720817739e-10
4.16522661158e-12
3.26084156376e-10
3.83890921393e-12
3.24572857813e-10
3.57160868236e-12
3.23165899748e-10
3.3706493089e-12
3.21841930503e-10
3.24446666132e-12
3.20580426751e-10
3.2012891401e-12
3.19363923713e-10
3.24590301636e-12
3.18181398657e-10
3.3723108249e-12
3.17030718305e-10
3.54812608635e-12
3.68726032036e-12
9.63954293905e-10
1.29265773034e-10
9.87732252695e-10
2.67727066043e-10
9.89857192818e-10
3.16594150654e-10
9.72413042751e-10
3.15910397966e-10
9.42342660377e-10
2.93002001991e-10
9.05688588764e-10
2.622646714e-10
8.66642023995e-10
2.30482048162e-10
8.27847155313e-10
2.00584845607e-10
7.90857929208e-10
1.73652201712e-10
7.56511763552e-10
1.49902300605e-10
7.25194197592e-10
1.29174120494e-10
6.97015705031e-10
1.11159327824e-10
6.71926209168e-10
9.55117711962e-11
6.49787699204e-10
8.18968758004e-11
6.30419431561e-10
7.00116288294e-11
6.13625493812e-10
5.95904133267e-11
5.99211160906e-10
5.04043136629e-11
5.86992207311e-10
4.22576884243e-11
5.76799844232e-10
3.49838687414e-11
5.68482980386e-10
2.84408554635e-11
5.61908879955e-10
2.25073909103e-11
5.569628916e-10
1.7079534072e-11
5.53547667423e-10
1.20677506554e-11
5.51582128661e-10
7.39447826592e-12
5.51000331762e-10
2.99210926231e-12
5.5175032317e-10
-1.1986676853e-12
5.53793025176e-10
-5.23021374657e-12
5.57101176473e-10
-9.14902524941e-12
5.61658332009e-10
-1.29966067559e-11
5.67457907148e-10
-1.68101358136e-11
5.74502248319e-10
-2.06229450385e-11
5.82801705244e-10
-2.44648324478e-11
5.92373673958e-10
-2.83622036705e-11
6.03241574561e-10
-3.23380433928e-11
6.15433722399e-10
-3.64117080675e-11
6.28982046374e-10
-4.05985276794e-11
6.43920603154e-10
-4.4909201748e-11
6.60283832089e-10
-4.93489744779e-11
6.78104492972e-10
-5.39165772838e-11
6.97411229142e-10
-5.86029353161e-11
7.18225703003e-10
-6.33896501684e-11
7.40559262563e-10
-6.82472957636e-11
7.64409118529e-10
-7.31336005998e-11
7.89754045296e-10
-7.79916380134e-11
8.16549668571e-10
-8.27482057533e-11
8.44723469716e-10
-8.73126415849e-11
8.74169721061e-10
-9.15763818159e-11
9.04744662482e-10
-9.54136062754e-11
9.36262324565e-10
-9.86833025739e-11
9.68491477998e-10
-1.01233000499e-10
1.00115421597e-09
-1.02904262052e-10
1.03392663318e-09
-1.03539778511e-10
1.06644194203e-09
-1.02991675482e-10
1.09829618289e-09
-1.01130441536e-10
1.12905648778e-09
-9.78538487763e-11
1.15827170037e-09
-9.30953281952e-11
1.18548505999e-09
-8.68313981429e-11
1.21024858297e-09
-7.90877573484e-11
1.23213863491e-09
-6.99434563632e-11
1.25077193702e-09
-5.95322620178e-11
1.26582093542e-09
-4.80401902178e-11
1.27702720144e-09
-3.56984009284e-11
1.28421142413e-09
-2.27712537845e-11
1.2872787235e-09
-9.54032028212e-12
1.2862186192e-09
3.713536169e-12
1.28109998419e-09
1.67268792493e-11
1.27206225945e-09
2.92662112817e-11
1.25930467029e-09
4.11347684684e-11
1.24307517521e-09
5.21735672113e-11
1.2236604573e-09
6.22580331911e-11
1.20137752294e-09
7.12925716068e-11
1.17656672761e-09
7.92054690625e-11
1.1495856159e-09
8.59456562582e-11
1.12080291039e-09
9.14817175055e-11
1.09059216854e-09
9.58026820869e-11
1.05932489805e-09
9.89197064041e-11
1.02736320717e-09
1.00867629427e-10
9.95052328636e-10
1.01705464724e-10
9.62713543534e-10
1.01515165579e-10
9.30638093498e-10
1.00398431421e-10
8.99082586573e-10
9.84718042986e-11
8.68266204859e-10
9.58606862871e-11
8.38369776698e-10
9.26930855848e-11
8.09536552441e-10
8.90938529645e-11
7.8187436686e-10
8.51799633299e-11
7.55458798197e-10
8.10571260505e-11
7.30336932527e-10
7.68177571915e-11
7.06531389787e-10
7.25401657222e-11
6.84044339611e-10
6.82887066526e-11
6.62861312393e-10
6.41146248962e-11
6.42954681113e-10
6.00573322408e-11
6.24286747101e-10
5.61459039606e-11
6.06812406206e-10
5.24006341749e-11
5.9048140215e-10
4.88345392166e-11
5.7524019315e-10
4.54547404903e-11
5.61033468938e-10
4.22636908147e-11
5.47805360162e-10
3.92602314504e-11
5.3550038296e-10
3.64404823877e-11
5.24064159551e-10
3.37985777619e-11
5.13443952332e-10
3.132726316e-11
5.03589044698e-10
2.90183734811e-11
4.94450997417e-10
2.6863210004e-11
4.85983804996e-10
2.48528341917e-11
4.78143972447e-10
2.29782940779e-11
4.70890529091e-10
2.1230797195e-11
4.6418499285e-10
1.96018421559e-11
4.57991295515e-10
1.80833193048e-11
4.52275677069e-10
1.66675894007e-11
4.47006554971e-10
1.53475480932e-11
4.42154372565e-10
1.41166830013e-11
4.37691429257e-10
1.29691294837e-11
4.33591694002e-10
1.1899730647e-11
4.29830602837e-10
1.09041066817e-11
4.26384840932e-10
9.97873813417e-12
4.23232109968e-10
9.12106696434e-12
4.20350883065e-10
8.32961784158e-12
4.17720152257e-10
7.60413939068e-12
4.15319178646e-10
6.94575983536e-12
4.13127263667e-10
6.35714148943e-12
4.11123572979e-10
5.84259983053e-12
4.09287063707e-10
5.40811792106e-12
4.07596591649e-10
5.06112138832e-12
4.06031303061e-10
4.80975534939e-12
4.04571422481e-10
4.66116992716e-12
4.03199439044e-10
4.61788677038e-12
4.01901137499e-10
4.67061272708e-12
4.00663903573e-10
4.78536032672e-12
4.88524992249e-12
9.57572914877e-10
1.09192856438e-10
9.82631069245e-10
2.42668907971e-10
9.95210567553e-10
3.04014648714e-10
9.9256600199e-10
3.18554959808e-10
9.77843209237e-10
3.07724790898e-10
9.55143733532e-10
2.84964143203e-10
9.27918989511e-10
2.57706788272e-10
8.98701904322e-10
2.29801926897e-10
8.69230212213e-10
2.03123889941e-10
8.40639534651e-10
1.78492974311e-10
8.13635447524e-10
1.56178203791e-10
7.88626500429e-10
1.36168271117e-10
7.6582125751e-10
1.18317010342e-10
7.45297030991e-10
1.02421098579e-10
7.27047693909e-10
8.8260962207e-11
7.11016499756e-10
7.56216038134e-11
6.97118344091e-10
6.4302465702e-11
6.85254675334e-10
5.41213536002e-11
6.75323330407e-10
4.49152101343e-11
6.6722489106e-10
3.65392913253e-11
6.60866671079e-10
2.88656074574e-11
6.56165102104e-10
2.17810996667e-11
6.53047046148e-10
1.5185803287e-11
6.51450395963e-10
8.99112518421e-12
6.51324208332e-10
3.11829368485e-12
6.52628534991e-10
-2.50299749019e-12
6.55334052451e-10
-7.93573428978e-12
6.59421570385e-10
-1.32365461982e-11
6.6488145524e-10
-1.84564945549e-11
6.71712984825e-10
-2.36416682636e-11
6.7992363919e-10
-2.8833602186e-11
6.89528320409e-10
-3.40695163535e-11
7.00548483764e-10
-3.93823696071e-11
7.1301115442e-10
-4.48007165059e-11
7.26947795974e-10
-5.03483519395e-11
7.4239299042e-10
-5.60437242777e-11
7.59382882672e-10
-6.1899095961e-11
7.77953337586e-10
-6.79194311301e-11
7.98137753663e-10
-7.4100994841e-11
8.19964476665e-10
-8.04296595015e-11
8.43453759684e-10
-8.68789340331e-11
8.68614226083e-10
-9.34077626242e-11
8.95438811103e-10
-9.99581856578e-11
9.23900190526e-10
-1.06453017001e-10
9.53945754246e-10
-1.12793768524e-10
9.85492252613e-10
-1.18859138445e-10
1.01842033441e-09
-1.24504461509e-10
1.05256930362e-09
-1.29562572761e-10
1.08773253504e-09
-1.33846530605e-10
1.12365408279e-09
-1.37154544175e-10
1.16002705871e-09
-1.39277233215e-10
1.19649431494e-09
-1.40007029317e-10
1.23265182042e-09
-1.39149174917e-10
1.2680548953e-09
-1.3653350982e-10
1.30222722539e-09
-1.32026171851e-10
1.33467240487e-09
-1.25540500434e-10
1.36488768796e-09
-1.17046673969e-10
1.3923796084e-09
-1.06579670774e-10
1.41668101217e-09
-9.42448536569e-11
1.43736875249e-09
-8.02199967295e-11
1.45408088847e-09
-6.47523217727e-11
1.46653187386e-09
-4.81493833887e-11
1.4745240223e-09
-3.07634010387e-11
1.47795361599e-09
-1.29699147293e-11
1.47681071148e-09
4.85643793084e-12
1.47117302496e-09
2.23645611657e-11
1.46119552783e-09
3.92437021908e-11
1.44709792264e-09
5.52323661733e-11
1.4291521208e-09
7.01193606368e-11
1.4076712995e-09
8.37388454327e-11
1.38300112208e-09
9.59627395646e-11
1.35551272057e-09
1.06693860898e-10
1.32559653972e-09
1.15861827412e-10
1.29365617711e-09
1.234220706e-10
1.26010165259e-09
1.29357197414e-10
1.22534188551e-09
1.33679464767e-10
1.18977649241e-09
1.36433014363e-10
1.15378732795e-09
1.3769462163e-10
1.11773041905e-09
1.37572067571e-10
1.08192901508e-09
1.36199829112e-10
1.04666836533e-09
1.33732448396e-10
1.01219258067e-09
1.30336465902e-10
9.78703630479e-10
1.26182031308e-10
9.46362258042e-10
1.21435221479e-10
9.15290423599e-10
1.16251794352e-10
8.85574815016e-10
1.10772731677e-10
8.5727098131e-10
1.05121588352e-10
8.3040771176e-10
9.94034330945e-11
8.04991372173e-10
9.37050443765e-11
7.81009998956e-10
8.80959965218e-11
7.58437028444e-10
8.26303013886e-11
7.37234599372e-10
7.73483318575e-11
7.17356410097e-10
7.22788224287e-11
6.98750141716e-10
6.74408067045e-11
6.81359476453e-10
6.28454049628e-11
6.65125750679e-10
5.84974158841e-11
6.49989286007e-10
5.4396695487e-11
6.35890442229e-10
5.05393255914e-11
6.22770433666e-10
4.6918585801e-11
6.10571947052e-10
4.3525749299e-11
5.9923959482e-10
4.03507252789e-11
5.8872023338e-10
3.738257105e-11
5.78963171612e-10
3.46098956036e-11
5.69920290877e-10
3.20211744924e-11
5.61546094178e-10
2.96049936077e-11
5.53797698875e-10
2.73502372064e-11
5.46634784528e-10
2.52462334303e-11
5.40019505004e-10
2.32828687336e-11
5.33916371879e-10
2.14506810539e-11
5.28292114459e-10
1.97409402836e-11
5.23115520301e-10
1.81457235273e-11
5.18357259095e-10
1.66579917611e-11
5.1398969204e-10
1.52716736634e-11
5.09986668654e-10
1.39817614652e-11
5.06323313246e-10
1.27844223332e-11
5.02975804415e-10
1.16771266478e-11
4.99921153015e-10
1.06587907794e-11
4.97136987494e-10
9.72992535822e-12
4.9460136067e-10
8.89276832677e-12
4.92292599073e-10
8.1513614577e-12
4.9018922436e-10
7.51149268654e-12
4.88269983185e-10
6.98036265263e-12
4.86514016851e-10
6.56572183256e-12
4.84901153338e-10
6.27403367753e-12
4.83412118665e-10
6.10692177552e-12
4.82027897561e-10
6.05483419523e-12
4.80726179984e-10
6.08707821577e-12
6.13988676803e-12
9.52962742423e-10
9.37301120934e-11
9.76597030512e-10
2.19034615953e-10
9.94036907881e-10
2.86574767478e-10
1.00056447465e-09
3.12027389138e-10
9.96805771924e-10
3.11483489627e-10
9.85168018405e-10
2.96601892672e-10
9.68190965099e-10
2.74683837525e-10
9.48004648487e-10
2.4998823947e-10
9.26237721997e-10
2.24890812413e-10
9.04074547818e-10
2.00656144492e-10
8.8234609933e-10
1.77906648303e-10
8.61616076093e-10
1.56898290401e-10
8.42251865108e-10
1.37681217397e-10
8.24479708239e-10
1.20193251544e-10
8.08426343724e-10
1.04314322846e-10
7.94149896137e-10
8.98980475535e-11
7.81662519478e-10
7.67898385456e-11
7.70946837867e-10
6.48370314311e-11
7.61967778059e-10
5.3894266198e-11
7.54681006891e-10
4.38260587871e-11
7.49038883152e-10
3.45077275308e-11
7.44994599008e-10
2.58253801863e-11
7.42505008316e-10
1.76753903978e-11
7.41532505722e-10
9.96362424015e-12
7.42046220782e-10
2.60457513225e-12
7.44022717637e-10
-4.47949779121e-12
7.47446327298e-10
-1.13593473486e-11
7.52309225276e-10
-1.8099447522e-11
7.58611305096e-10
-2.47585776669e-11
7.66359887118e-10
-3.13902535177e-11
7.75569284654e-10
-3.80430028865e-11
7.86260233958e-10
-4.4760468746e-11
7.98459182252e-10
-5.15813209001e-11
8.12197417411e-10
-5.85389545584e-11
8.27510013611e-10
-6.56609509078e-11
8.44434558797e-10
-7.29682720827e-11
8.63009622134e-10
-8.04741617382e-11
8.83272912876e-10
-8.81827240997e-11
9.05259076745e-10
-9.60871606886e-11
9.28997072943e-10
-1.04167657386e-10
9.54507075675e-10
-1.12388938114e-10
9.81796850952e-10
-1.20697538867e-10
1.0108575754e-09
-1.29018910635e-10
1.04165909319e-09
-1.37254534845e-10
1.07414465506e-09
-1.45279329908e-10
1.10822525447e-09
-1.52939736796e-10
1.14377377437e-09
-1.60052979731e-10