/*--------------------------------*- C++ -*----------------------------------*\
  =========                 |
  \\      /  F ield         | OpenFOAM: The Open Source CFD Toolbox
   \\    /   O peration     | Website:  https://openfoam.org
    \\  /    A nd           | Version:  7
     \\/     M anipulation  |
\*---------------------------------------------------------------------------*/
FoamFile
{
    version     2.0;
    format      ascii;
    class       volVectorField;
    location    "1440";
    object      U;
}
// * * * * * * * * * * * * * * * * * * * * * * * * * * * * * * * * * * * * * //

dimensions      [0 1 -1 0 0 0 0];

internalField   nonuniform List<vector> 
8192
(
(0.00104346112872 0.000156538871283 0)
(0.000759322307544 0.000127599949132 0)
(0.000549326957628 8.23953992544e-05 0)
(0.000414081692761 5.28498640589e-05 0)
(0.000326280984948 3.49508421351e-05 0)
(0.000267273031796 2.4057109312e-05 0)
(0.000225991876641 1.7224044099e-05 0)
(0.000195999574388 1.27682564139e-05 0)
(0.00017348800372 9.7433125449e-06 0)
(0.000156134524183 7.61016533284e-06 0)
(0.000142470659656 6.0536975962e-06 0)
(0.000131533260851 4.88369968119e-06 0)
(0.000122668194984 3.98136473233e-06 0)
(0.000115416911239 3.26991763881e-06 0)
(0.000109448882818 2.69810949166e-06 0)
(0.000104520087497 2.2306846264e-06 0)
(0.000100446689123 1.84271263606e-06 0)
(9.70878568278e-05 1.51611864586e-06 0)
(9.43342390149e-05 1.23749825688e-06 0)
(9.21000359464e-05 9.96704011423e-07 0)
(9.03174235924e-05 7.85907659011e-07 0)
(8.89325519949e-05 5.98963379203e-07 0)
(8.79026222498e-05 4.30965938616e-07 0)
(8.71937180612e-05 2.77937963121e-07 0)
(8.67791754343e-05 1.36604526081e-07 0)
(8.66383429171e-05 4.22801176385e-09 0)
(8.67556296991e-05 -1.21514605227e-07 0)
(8.71197679776e-05 -2.42623306773e-07 0)
(8.77232365401e-05 -3.60844700849e-07 0)
(8.85618074012e-05 -4.77725405594e-07 0)
(8.96341855104e-05 -5.9465173789e-07 0)
(9.09417168271e-05 -7.12878389449e-07 0)
(9.2488144286e-05 -8.33547643535e-07 0)
(9.42793934304e-05 -9.57699824579e-07 0)
(9.63233702663e-05 -1.08627507048e-06 0)
(9.86297535273e-05 -1.22010596963e-06 0)
(0.000101209762232 -1.35990021873e-06 0)
(0.00010407587739 -1.50621211235e-06 0)
(0.000107241494221 -1.65940156421e-06 0)
(0.000110720478708 -1.81957942701e-06 0)
(0.000114526600395 -1.98653840651e-06 0)
(0.000118672812886 -2.15966986163e-06 0)
(0.000123170355933 -2.33786858461e-06 0)
(0.000128027659728 -2.51943022196e-06 0)
(0.000133249044825 -2.70194949941e-06 0)
(0.000138833231488 -2.88223140041e-06 0)
(0.000144771700473 -3.05623144533e-06 0)
(0.000151046982325 -3.21904390419e-06 0)
(0.000157630989955 -3.36495688532e-06 0)
(0.000164483543161 -3.48758917183e-06 0)
(0.000171551254844 -3.58011509747e-06 0)
(0.000178766949129 -3.63557156219e-06 0)
(0.000186049757374 -3.64722891371e-06 0)
(0.000193305993081 -3.60899896223e-06 0)
(0.000200430852112 -3.51585227632e-06 0)
(0.000207310933942 -3.36422191425e-06 0)
(0.000213827539439 -3.15237623127e-06 0)
(0.000219860663846 -2.88074125609e-06 0)
(0.000225293551883 -2.55214045008e-06 0)
(0.000230017599873 -2.1719019625e-06 0)
(0.000233937280273 -1.74777378222e-06 0)
(0.000236974654577 -1.28959695361e-06 0)
(0.000239072976621 -8.08722770181e-07 0)
(0.000240198920095 -3.17219763016e-07 0)
(0.000240343125231 1.73014093107e-07 0)
(0.000239519039579 6.51069521339e-07 0)
(0.000237760355767 1.10761078543e-06 0)
(0.000235117585279 1.53515483223e-06 0)
(0.000231654381105 1.92804325456e-06 0)
(0.000227444149107 2.28218160903e-06 0)
(0.000222567281552 2.59467793505e-06 0)
(0.000217109082166 2.86351272941e-06 0)
(0.000211158231601 3.08732855963e-06 0)
(0.00020480552744 3.2653659188e-06 0)
(0.000198142631475 3.39752010226e-06 0)
(0.000191260636689 3.48446461178e-06 0)
(0.000184248384285 3.52777771628e-06 0)
(0.000177190581237 3.53001535811e-06 0)
(0.000170165864797 3.49469130242e-06 0)
(0.000163245013146 3.42615083649e-06 0)
(0.000156489502088 3.32935103404e-06 0)
(0.000149950560564 3.20958167109e-06 0)
(0.000143668799861 3.07217061266e-06 0)
(0.000137674406116 2.92221513089e-06 0)
(0.000131987814382 2.76436902935e-06 0)
(0.000126620738026 2.60270018264e-06 0)
(0.000121577412329 2.44061879234e-06 0)
(0.000116855920665 2.280866561e-06 0)
(0.000112449496489 2.12555169798e-06 0)
(0.000108347725538 1.97621371151e-06 0)
(0.000104537602959 1.83390367938e-06 0)
(0.000101004425522 1.69926890236e-06 0)
(9.77325178396e-05 1.57263423543e-06 0)
(9.47058038518e-05 1.4540754984e-06 0)
(9.19082416593e-05 1.34348271185e-06 0)
(8.93241425933e-05 1.24061262585e-06 0)
(8.6938395453e-05 1.14513102456e-06 0)
(8.47366152523e-05 1.05664591039e-06 0)
(8.27052334095e-05 9.74732878227e-07 0)
(8.08315436171e-05 8.98954059886e-07 0)
(7.9103715001e-05 8.28871891729e-07 0)
(7.75107817811e-05 7.64058843595e-07 0)
(7.60426165803e-05 7.04104043962e-07 0)
(7.46898927805e-05 6.48617605099e-07 0)
(7.34440399044e-05 5.97233274734e-07 0)
(7.22971948307e-05 5.49609949343e-07 0)
(7.12421507114e-05 5.05432459297e-07 0)
(7.02723046781e-05 4.64411994528e-07 0)
(6.93816047598e-05 4.26286468411e-07 0)
(6.8564495827e-05 3.90821125674e-07 0)
(6.7815863787e-05 3.57809685388e-07 0)
(6.71309765982e-05 3.27076377308e-07 0)
(6.65054198991e-05 2.98479292237e-07 0)
(6.59350240333e-05 2.71915633882e-07 0)
(6.54157778729e-05 2.47329671083e-07 0)
(6.4943722843e-05 2.2472458183e-07 0)
(6.45148175954e-05 2.04179961803e-07 0)
(6.41247592171e-05 1.85877780791e-07 0)
(6.37687396395e-05 1.70141225053e-07 0)
(6.34411041468e-05 1.57493756435e-07 0)
(6.31348592695e-05 1.48750668958e-07 0)
(6.2840944394e-05 1.45163815376e-07 0)
(6.25471272937e-05 1.48652961512e-07 0)
(6.22363041679e-05 1.62169922145e-07 0)
(6.1883913861e-05 1.90220244534e-07 0)
(6.14544083022e-05 2.39285297572e-07 0)
(6.08986592586e-05 3.16463857346e-07 0)
(6.01761471384e-05 4.06048453904e-07 0)
(0.00121017172216 0.000302906019724 0)
(0.00116032520154 0.000315218139481 0)
(0.00102699727574 0.000238100479923 0)
(0.000887662441789 0.000171724877342 0)
(0.000767138351593 0.000124400621766 0)
(0.000668896182627 9.18574465071e-05 0)
(0.000590229890505 6.93711488226e-05 0)
(0.000527312752255 5.35305868748e-05 0)
(0.000476707690768 4.2097609025e-05 0)
(0.000435679651381 3.36373827118e-05 0)
(0.000402143149747 2.7226841489e-05 0)
(0.000374528089894 2.22630097548e-05 0)
(0.000351651404063 1.83438018764e-05 0)
(0.000332615222462 1.51949415844e-05 0)
(0.000316731345255 1.26249871536e-05 0)
(0.000303466643968 1.04972998011e-05 0)
(0.000292403866847 8.71226944799e-06 0)
(0.000283213432628 7.19582511854e-06 0)
(0.000275632981163 5.89185812899e-06 0)
(0.000269452400173 4.75712557743e-06 0)
(0.000264502740594 3.75775573994e-06 0)
(0.000260647918025 2.86680753147e-06 0)
(0.000257778431711 2.06253628768e-06 0)
(0.000255806561081 1.327141272e-06 0)
(0.000254662656751 6.45847435565e-07 0)
(0.000254292250908 6.2231700059e-09 0)
(0.000254653786768 -6.0233222699e-07 0)
(0.000255716818191 -1.18897470903e-06 0)
(0.000257460568421 -1.76171088611e-06 0)
(0.000259872763567 -2.32762346533e-06 0)
(0.000262948672429 -2.89303829922e-06 0)
(0.000266690295682 -3.46364342299e-06 0)
(0.00027110565533 -4.04456608366e-06 0)
(0.000276208139678 -4.64041054567e-06 0)
(0.00028201586055 -5.25525698813e-06 0)
(0.000288550978913 -5.89261982434e-06 0)
(0.000295838952776 -6.55536225551e-06 0)
(0.000303907657961 -7.24556287053e-06 0)
(0.00031278632867 -7.96432988208e-06 0)
(0.000322504261972 -8.7115594733e-06 0)
(0.000333089229614 -9.48563726219e-06 0)
(0.000344565544215 -1.02830866302e-05 0)
(0.00035695173713 -1.10981752453e-05 0)
(0.000370257825256 -1.19225018587e-05 0)
(0.000384482176238 -1.2744599222e-05 0)
(0.000399608028189 -1.35496044808e-05 0)
(0.000415599780724 -1.43190630063e-05 0)
(0.00043239924535 -1.50309409154e-05 0)
(0.00044992211677 -1.5659920058e-05 0)
(0.000468054989226 -1.61780319235e-05 0)
(0.000486653277708 -1.65556520295e-05 0)
(0.000505540398193 -1.67628283331e-05 0)
(0.000524508507366 -1.67708681165e-05 0)
(0.000543321007227 -1.65540737575e-05 0)
(0.000561716902657 -1.60915105568e-05 0)
(0.000579416984087 -1.53687060506e-05 0)
(0.000596131704927 -1.43791985405e-05 0)
(0.000611570524749 -1.31258446837e-05 0)
(0.000625452366989 -1.16217506874e-05 0)
(0.000637516672675 -9.89063116396e-06 0)
(0.000647534330183 -7.96637112865e-06 0)
(0.000655317577325 -5.89161304756e-06 0)
(0.000660727885422 -3.71533259322e-06 0)
(0.000663680928637 -1.48959650462e-06 0)
(0.000664148068412 7.34041778489e-07 0)
(0.000662154315266 2.90787224813e-06 0)
(0.00065777333465 4.99046008134e-06 0)
(0.000651120510317 6.94788431485e-06 0)
(0.000642345236463 8.7537726001e-06 0)
(0.000631623485722 1.03884131576e-05 0)
(0.000619151333853 1.18374418193e-05 0)
(0.000605139647533 1.30906088837e-05 0)
(0.000589809734935 1.41409686679e-05 0)
(0.000573389534059 1.49846031315e-05 0)
(0.000556109890949 1.56207938294e-05 0)
(0.000538200607235 1.60524411912e-05 0)
(0.000519886140639 1.6286492206e-05 0)
(0.000501381058239 1.63341589177e-05 0)
(0.000482885519174 1.62107766009e-05 0)
(0.00046458116332 1.59352473196e-05 0)
(0.000446627786367 1.55291178892e-05 0)
(0.000429161096104 1.50154230697e-05 0)
(0.000412291699554 1.441746413e-05 0)
(0.000396105308302 1.37576854949e-05 0)
(0.000380664009448 1.30567693627e-05 0)
(0.000366008357137 1.23330098326e-05 0)
(0.000352160001805 1.1601972658e-05 0)
(0.000339124583643 1.08764061325e-05 0)
(0.00032689465822 1.01663464006e-05 0)
(0.000315452479245 9.47935461467e-06 0)
(0.000304772522556 8.82082866218e-06 0)
(0.000294823687933 8.19434347253e-06 0)
(0.00028557115676 7.60198682719e-06 0)
(0.000276977913119 7.04466959769e-06 0)
(0.000269005954685 6.52239900565e-06 0)
(0.00026161722989 6.0345106169e-06 0)
(0.000254774341633 5.57985947022e-06 0)
(0.000248441057348 5.1569735677e-06 0)
(0.000242582662239 4.76417433714e-06 0)
(0.000237166188146 4.39966916671e-06 0)
(0.000232160545738 4.06162097901e-06 0)
(0.000227536582946 3.74819940419e-06 0)
(0.000223267088185 3.45761752361e-06 0)
(0.00021932675303 3.18815757916e-06 0)
(0.000215692105639 2.93818846691e-06 0)
(0.000212341423381 2.70617736739e-06 0)
(0.000209254630727 2.49069745276e-06 0)
(0.000206413186412 2.29043332776e-06 0)
(0.000203799962121 2.10418564353e-06 0)
(0.000201399113371 1.93087623416e-06 0)
(0.00019919594176 1.76955511174e-06 0)
(0.000197176746266 1.61941078408e-06 0)
(0.000195328659651 1.47978559836e-06 0)
(0.000193639464224 1.35019825169e-06 0)
(0.000192097379032 1.23037625516e-06 0)
(0.00019069080798 1.12030213119e-06 0)
(0.000189408035325 1.02027855818e-06 0)
(0.000188236851513 9.31019796581e-07 0)
(0.000187164089141 8.53779753583e-07 0)
(0.000186175047408 7.90531217629e-07 0)
(0.000185252788666 7.44215765889e-07 0)
(0.00018437731437 7.19087018903e-07 0)
(0.000183524700635 7.21159939989e-07 0)
(0.000182666473103 7.58713206427e-07 0)
(0.000181770030072 8.42510199692e-07 0)
(0.000180802250903 9.84280275166e-07 0)
(0.00017974240505 1.18706421128e-06 0)
(0.000178608679986 1.39168577473e-06 0)
(0.00122478021734 0.000267954078777 0)
(0.0012410823416 0.000383714472002 0)
(0.00119618846945 0.000347825938629 0)
(0.00111344479364 0.000284077921495 0)
(0.00102047392191 0.000225542532382 0)
(0.000930976422361 0.000178455197061 0)
(0.000850381332711 0.000142034772645 0)
(0.000780081199767 0.000114084226916 0)
(0.000719706068282 9.25241547602e-05 0)
(0.000668229388352 7.5715549277e-05 0)
(0.000624472137283 6.2442420819e-05 0)
(0.000587314177745 5.18204432378e-05 0)
(0.000555769203828 4.32080218145e-05 0)
(0.000528999310447 3.61367905645e-05 0)
(0.000506305077306 3.02612427373e-05 0)
(0.000487107539468 2.53232778559e-05 0)
(0.000470929129022 2.11274737894e-05 0)
(0.000457376356404 1.75238227764e-05 0)
(0.000446125062084 1.43956017753e-05 0)
(0.000436908250122 1.16507707787e-05 0)
(0.000429506209991 9.2158065451e-06 0)
(0.000423738555191 7.0312308152e-06 0)
(0.000419457822646 5.04832903238e-06 0)
(0.000416544324732 3.22671471516e-06 0)
(0.000414901999451 1.53250175183e-06 0)
(0.000414455053215 -6.30803890755e-08 0)
(0.000415145231255 -1.584743329e-06 0)
(0.000416929582379 -3.05394632335e-06 0)
(0.000419778612713 -4.48951938073e-06 0)
(0.000423674741829 -5.90813811918e-06 0)
(0.000428610985719 -7.3246745872e-06 0)
(0.000434589801153 -8.75244327202e-06 0)
(0.000441622031927 -1.0203353328e-05 0)
(0.000449725900335 -1.16879719003e-05 0)
(0.00045892598752 -1.32154986559e-05 0)
(0.00046925214479 -1.47936478226e-05 0)
(0.000480738274934 -1.64284313121e-05 0)
(0.000493420918893 -1.81238349577e-05 0)
(0.000507337579701 -1.98813802085e-05 0)
(0.000522524713906 -2.1699566387e-05 0)
(0.000539015322438 -2.35731950393e-05 0)
(0.000556836080712 -2.54925889754e-05 0)
(0.000576003964533 -2.74427355761e-05 0)
(0.000596522357487 -2.94024072068e-05 0)
(0.000618376670034 -3.13433406454e-05 0)
(0.00064152956248 -3.32295893402e-05 0)
(0.000665915942755 -3.50171915068e-05 0)
(0.000691438000815 -3.6654314358e-05 0)
(0.000717960633879 -3.80820291364e-05 0)
(0.000745307694425 -3.92358327681e-05 0)
(0.000773259535391 -4.00479565895e-05 0)
(0.000801552315705 -4.04503997571e-05 0)
(0.000829879454576 -4.03785194066e-05 0)
(0.0008578954924 -3.97749346271e-05 0)
(0.000885222454585 -3.85934819747e-05 0)
(0.000911458654204 -3.68029910108e-05 0)
(0.00093618972948 -3.43906862071e-05 0)
(0.000959001582477 -3.13650081116e-05 0)
(0.00097949473061 -2.77575582966e-05 0)
(0.000997299373108 -2.36237554339e-05 0)
(0.00101209022337 -1.90417420023e-05 0)
(0.00102359993109 -1.41091887129e-05 0)
(0.00103162981235 -8.93794277161e-06 0)
(0.0010360567225 -3.6469413789e-06 0)
(0.00103683532003 1.64564232638e-06 0)
(0.00103399565431 6.8296782994e-06 0)
(0.00102763679127 1.18084805467e-05 0)
(0.00101791777239 1.65016856075e-05 0)
(0.00100504741307 2.08455793311e-05 0)
(0.00098927429037 2.47914517217e-05 0)
(0.000970877806361 2.83030086097e-05 0)
(0.000950160612535 3.13538899326e-05 0)
(0.000927442168186 3.3926011029e-05 0)
(0.000903052930866 3.600896472e-05 0)
(0.000877328655363 3.76003163824e-05 0)
(0.000850604436795 3.87063866607e-05 0)
(0.000823208381466 3.93430349901e-05 0)
(0.000795455050995 3.95359962308e-05 0)
(0.000767639040872 3.93204568394e-05 0)
(0.000740029176497 3.87397569902e-05 0)
(0.000712863811966 3.78433208264e-05 0)
(0.00068634760596 3.66840890444e-05 0)
(0.000660649962998 3.53158118714e-05 0)
(0.000635905120926 3.37905468478e-05 0)
(0.000612213687036 3.21566180685e-05 0)
(0.000589645306737 3.04571725499e-05 0)
(0.000568242098894 2.87293533642e-05 0)
(0.000548022501308 2.70040227829e-05 0)
(0.000528985219547 2.53059198149e-05 0)
(0.000511113042336 2.36541214536e-05 0)
(0.000494376360451 2.20626855615e-05 0)
(0.000478736292726 2.05413750976e-05 0)
(0.000464147376736 1.90963894723e-05 0)
(0.000450559821551 1.7731053745e-05 0)
(0.000437921346565 1.64464370381e-05 0)
(0.000426178646231 1.52418872091e-05 0)
(0.000415278527993 1.4115479556e-05 0)
(0.000405168772436 1.30643841493e-05 0)
(0.000395798762649 1.20851600827e-05 0)
(0.000387119925563 1.11739866029e-05 0)
(0.000379086022762 1.03268412951e-05 0)
(0.000371653322719 9.53963498267e-06 0)
(0.000364780680976 8.80831199708e-06 0)
(0.000358429549861 8.12892338958e-06 0)
(0.000352563934854 7.49767951144e-06 0)
(0.000347150310893 6.9109874175e-06 0)
(0.000342157508556 6.36547766776e-06 0)
(0.000337556577177 5.85802445628e-06 0)
(0.000333320629505 5.38576248256e-06 0)
(0.000329424670282 4.94610370593e-06 0)
(0.000325845409194 4.53675698908e-06 0)
(0.000322561056794 4.15575374536e-06 0)
(0.000319551100292 3.80148297185e-06 0)
(0.000316796054491 3.47273957898e-06 0)
(0.000314277181683 3.16879064113e-06 0)
(0.000311976173257 2.88946515802e-06 0)
(0.000309874785616 2.63527397367e-06 0)
(0.0003079544247 2.40756745182e-06 0)
(0.000306195679158 2.2087385483e-06 0)
(0.000304577815831 2.04247621202e-06 0)
(0.000303078280615 1.91406366511e-06 0)
(0.000301672307557 1.83068564636e-06 0)
(0.000300332856748 1.80162531211e-06 0)
(0.000299031326073 1.83800584165e-06 0)
(0.000297739881082 1.9511057723e-06 0)
(0.000296436887824 2.1464576581e-06 0)
(0.00029511665578 2.40496542757e-06 0)
(0.000293796759265 2.62740676513e-06 0)
(0.00122192608564 0.000221247774203 0)
(0.00125338523284 0.00038265949977 0)
(0.00125105893012 0.000396101078263 0)
(0.00121338407115 0.000356221309091 0)
(0.0011553850883 0.000304368991597 0)
(0.00108946567167 0.000255045646055 0)
(0.00102309869732 0.000212406379626 0)
(0.000960243958197 0.000176867484012 0)
(0.000902725814477 0.000147634164978 0)
(0.000851163765153 0.000123644260555 0)
(0.000805537244065 0.000103897474096 0)
(0.000765511716161 8.7548869974e-05 0)
(0.00073062043482 7.39158430974e-05 0)
(0.000700362167508 6.24571229368e-05 0)
(0.000674251185807 5.27461183847e-05 0)
(0.000651840710096 4.44464091653e-05 0)
(0.000632731949937 3.72915067391e-05 0)
(0.000616575597664 3.10689086303e-05 0)
(0.000603069594576 2.56078075205e-05 0)
(0.000591955260262 2.07697057953e-05 0)
(0.000583012900446 1.64412662719e-05 0)
(0.000576057463689 1.25288577722e-05 0)
(0.000570934516355 8.95437742861e-06 0)
(0.000567516641996 5.65203443341e-06 0)
(0.000565700285096 2.56586044405e-06 0)
(0.000565403015621 -3.5222673494e-07 0)
(0.000566561169314 -3.14393165128e-06 0)
(0.000569127810451 -5.84575274608e-06 0)
(0.000573070965689 -8.48990053823e-06 0)
(0.00057837207563 -1.11049975249e-05 0)
(0.000585024608797 -1.37165932115e-05 0)
(0.000593032785676 -1.63475173676e-05 0)
(0.000602410360008 -1.90180841445e-05 0)
(0.000613179402903 -2.17461515511e-05 0)
(0.00062536903262 -2.45470343826e-05 0)
(0.00063901402908 -2.7433263563e-05 0)
(0.000654153267838 -3.04141814183e-05 0)
(0.000670827903808 -3.34953608708e-05 0)
(0.000689079231618 -3.66778380887e-05 0)
(0.000708946148407 -3.99571536956e-05 0)
(0.000730462148138 -4.33222091433e-05 0)
(0.000753651786699 -4.67539637468e-05 0)
(0.000778526577319 -5.02240261187e-05 0)
(0.000805080309749 -5.36932316988e-05 0)
(0.000833283837612 -5.71103449532e-05 0)
(0.00086307944876 -6.04110757213e-05 0)
(0.00089437502295 -6.35176453778e-05 0)
(0.000927038285073 -6.63391651523e-05 0)
(0.000960891569012 -6.87730785512e-05 0)
(0.00099570759832 -7.07078551928e-05 0)
(0.00103120684082 -7.20269984924e-05 0)
(0.00106705698077 -7.26142579939e-05 0)
(0.00110287496058 -7.23597589366e-05 0)
(0.00113823188171 -7.1166632614e-05 0)
(0.00117266085344 -6.89576962944e-05 0)
(0.00120566768396 -6.56817854444e-05 0)
(0.00123674415062 -6.13194130584e-05 0)
(0.0012653834547 -5.58874189724e-05 0)
(0.00129109730738 -4.94421307809e-05 0)
(0.00131343386076 -4.20803638925e-05 0)
(0.00133199539869 -3.39375099906e-05 0)
(0.00134645441878 -2.51821406006e-05 0)
(0.00135656658363 -1.60070334233e-05 0)
(0.00136217911899 -6.61729743186e-06 0)
(0.00136323370091 2.78281281669e-06 0)
(0.00135976370868 1.20021547786e-05 0)
(0.0013518866938 2.08718665276e-05 0)
(0.00133979363734 2.92503555717e-05 0)
(0.00132373682188 3.70240614624e-05 0)
(0.00130401794117 4.41049477158e-05 0)
(0.00128097749187 5.04264186407e-05 0)
(0.00125498574563 5.59393912291e-05 0)
(0.0012264349843 6.06096857587e-05 0)
(0.00119573238005 6.44171014668e-05 0)
(0.00116329291457 6.73558905424e-05 0)
(0.00112953194102 6.94359749637e-05 0)
(0.00109485728736 7.06841267761e-05 0)
(0.0010596611013 7.1144393104e-05 0)
(0.00102431188478 7.08772599534e-05 0)
(0.000989147304616 6.9957373125e-05 0)
(0.000954468361545 6.84699884478e-05 0)
(0.000920535360258 6.65066063585e-05 0)
(0.000887565894387 6.4160382533e-05 0)
(0.000855734811326 6.15218819418e-05 0)
(0.000825175911989 5.86755982598e-05 0)
(0.000795985005981 5.56974620955e-05 0)
(0.000768223890095 5.26533722715e-05 0)
(0.00074192483361 4.95986438758e-05 0)
(0.000717095214131 4.6578187e-05 0)
(0.000693722029043 4.36272046201e-05 0)
(0.000671776091709 4.07722105876e-05 0)
(0.000651215796762 3.80322025488e-05 0)
(0.000631990399614 3.54198657158e-05 0)
(0.000614042800354 3.29427231824e-05 0)
(0.000597311852947 3.06041818444e-05 0)
(0.000581734239384 2.84044487135e-05 0)
(0.000567245958178 2.63413104255e-05 0)
(0.00055378347987 2.44107805532e-05 0)
(0.000541284621092 2.26076260975e-05 0)
(0.000529689185103 2.09257879356e-05 0)
(0.000518939411594 1.935871094e-05 0)
(0.000508980272909 1.78995991093e-05 0)
(0.000499759648168 1.65416097536e-05 0)
(0.0004912284014 1.52779992549e-05 0)
(0.000483340384916 1.41022311984e-05 0)
(0.000476052384806 1.30080561697e-05 0)
(0.000469324021633 1.19895710845e-05 0)
(0.000463117616134 1.10412648496e-05 0)
(0.000457398026859 1.0158056229e-05 0)
(0.000452132464245 9.33532923324e-06 0)
(0.000447290283517 8.56897094234e-06 0)
(0.000442842756998 7.85541659065e-06 0)
(0.000438762824931 7.1917067744e-06 0)
(0.000435024822869 6.57556190314e-06 0)
(0.000431604183198 6.00547923306e-06 0)
(0.000428477108863 5.48085792576e-06 0)
(0.000425620219491 5.00215696946e-06 0)
(0.000423010175053 4.57108870186e-06 0)
(0.000420623291873 4.19084505118e-06 0)
(0.000418435183434 3.86634064775e-06 0)
(0.000416420489081 3.6044281249e-06 0)
(0.000414552804839 3.41397800052e-06 0)
(0.000412805011361 3.30557699687e-06 0)
(0.000411150308643 3.29028760703e-06 0)
(0.000409564384297 3.37619374761e-06 0)
(0.000408029006317 3.55974160844e-06 0)
(0.000406535754856 3.8051657689e-06 0)
(0.000405081242409 4.00161604933e-06 0)
(0.0012169307481 0.000182390938609 0)
(0.00124907938982 0.000357908540385 0)
(0.00126565724513 0.000406600476721 0)
(0.00125585295076 0.000393201055577 0)
(0.00122544365 0.00035579752012 0)
(0.00118273999945 0.000312240175886 0)
(0.00113429159217 0.000270027222528 0)
(0.00108447307476 0.000231919888746 0)
(0.00103597125409 0.000198601715794 0)
(0.000990316603366 0.000169893401044 0)
(0.000948291815132 0.000145299634286 0)
(0.000910214337679 0.000124249706617 0)
(0.000876122825088 0.000106197791993 0)
(0.000845896901358 9.06593568301e-05 0)
(0.000819332563689 7.72191957601e-05 0)
(0.000796188752238 6.55276110131e-05 0)
(0.00077621545902 5.52923505059e-05 0)
(0.000759170155659 4.62697129182e-05 0)
(0.000744826912988 3.82562416118e-05 0)
(0.000732981007755 3.10815040792e-05 0)
(0.000723450790618 2.46020379903e-05 0)
(0.000716077933795 1.86963729153e-05 0)
(0.000710726757774 1.32609791648e-05 0)
(0.000707283069493 8.20698911732e-06 0)
(0.000705652774671 3.45755152957e-06 0)
(0.000705760419156 -1.05429850622e-06 0)
(0.000707547742942 -5.38734274185e-06 0)
(0.000710972289056 -9.5935339846e-06 0)
(0.000716006085428 -1.37190756665e-05 0)
(0.00072263439306 -1.78052443861e-05 0)
(0.000730854499499 -2.18889900103e-05 0)
(0.00074067453028 -2.60033318958e-05 0)
(0.00075211224269 -3.01775596058e-05 0)
(0.000765193759053 -3.44372381432e-05 0)
(0.000779952190055 -3.88040108076e-05 0)
(0.000796426092015 -4.32951873099e-05 0)
(0.000814657695698 -4.79231012617e-05 0)
(0.000834690838556 -5.26942203371e-05 0)
(0.000856568528039 -5.76079956596e-05 0)
(0.000880330062153 -6.26554459572e-05 0)
(0.000906007636573 -6.78174890675e-05 0)
(0.000933622377963 -7.30630608288e-05 0)
(0.000963179763899 -7.83471015872e-05 0)
(0.000994664424848 -8.36085444574e-05 0)
(0.00102803437688 -8.87685057125e-05 0)
(0.0010632148085 -9.37289500758e-05 0)
(0.0011000916421 -9.83721697941e-05 0)
(0.00113850520547 -0.000102561455822 0)
(0.00117824447171 -0.000106143326235 0)
(0.00121904243364 -0.000108951585496 0)
(0.00126057324414 -0.000110813306548 0)
(0.00130245174346 -0.000111556573255 0)
(0.00134423588814 -0.000111019551041 0)
(0.00138543239995 -0.000109060255365 0)
(0.00142550570923 -0.000105566335817 0)
(0.00146389004042 -0.000100464288615 0)
(0.00150000432663 -9.37276439719e-05 0)
(0.00153326953149 -8.53836789914e-05 0)
(0.00156312781944 -7.55179947941e-05 0)
(0.00158906276604 -6.42759853515e-05 0)
(0.00161061943836 -5.18600870741e-05 0)
(0.00162742280759 -3.85219445758e-05 0)
(0.00163919272037 -2.45493028969e-05 0)
(0.00164575369448 -1.02485377751e-05 0)
(0.00164703829933 4.07486132385e-06 0)
(0.00164308390617 1.81344819256e-05 0)
(0.00163402383593 3.16766104971e-05 0)
(0.00162007483504 4.44876512666e-05 0)
(0.00160152310112 5.6395294492e-05 0)
(0.00157871080481 6.72648687849e-05 0)
(0.00155202430735 7.69934197436e-05 0)
(0.00152188432035 8.55040976508e-05 0)
(0.00148873749985 9.27425348432e-05 0)
(0.00145304865683 9.8675673163e-05 0)
(0.00141529285052 0.000103292564423 0)
(0.00137594692262 0.000106606176981 0)
(0.00133548038734 0.000108655089109 0)
(0.00129434594291 0.000109504037856 0)
(0.00125297015819 0.000109242594383 0)
(0.0012117450477 0.000107981708727 0)
(0.00117102123525 0.000105848389228 0)
(0.00113110322652 0.000102979197937 0)
(0.0010922470282 9.95134389532e-05 0)
(0.00105466005065 9.55868713553e-05 0)
(0.00101850298835 9.13265570559e-05 0)
(0.000983893225636 8.68471598679e-05 0)
(0.000950909267663 8.22487373756e-05 0)
(0.000919595726281 7.76158667266e-05 0)
(0.000889968466814 7.30178341453e-05 0)
(0.000862019617282 6.85095840033e-05 0)
(0.000835722235844 6.4133142643e-05 0)
(0.000811034514057 5.99192805562e-05 0)
(0.000787903458116 5.58892347071e-05 0)
(0.000766268037348 5.20563686353e-05 0)
(0.000746061820992 4.84276950138e-05 0)
(0.000727215143736 4.50052216169e-05 0)
(0.000709656850624 4.17871074433e-05 0)
(0.000693315675599 3.87686327894e-05 0)
(0.000678121307207 3.59429972414e-05 0)
(0.000664005191605 3.3301964862e-05 0)
(0.000650901118099 3.08363777601e-05 0)
(0.000638745626953 2.85365590898e-05 0)
(0.000627478273544 2.63926251189e-05 0)
(0.000617041777564 2.43947240492e-05 0)
(0.000607382080984 2.25332170839e-05 0)
(0.000598448334042 2.079881515e-05 0)
(0.000590192824553 1.91826827653e-05 0)
(0.000582570862453 1.7676518943e-05 0)
(0.000575540628505 1.62726237012e-05 0)
(0.000569062993623 1.49639577566e-05 0)
(0.000563101313167 1.37442022492e-05 0)
(0.000557621198886 1.26078248661e-05 0)
(0.000552590269977 1.1550158385e-05 0)
(0.000547977884012 1.05674973478e-05 0)
(0.000543754848576 9.65721803319e-06 0)
(0.000539893115541 8.81792573571e-06 0)
(0.000536365462606 8.0496308022e-06 0)
(0.000533145171778 7.35394956046e-06 0)
(0.00053020572308 6.73431558464e-06 0)
(0.000527520535453 6.19616578846e-06 0)
(0.000525062807479 5.74702502619e-06 0)
(0.000522805539428 5.39633324622e-06 0)
(0.000520721852614 5.15470208685e-06 0)
(0.000518785744347 5.03197380304e-06 0)
(0.000516973351376 5.03282546351e-06 0)
(0.000515264368988 5.14747107326e-06 0)
(0.000513641626286 5.33343130436e-06 0)
(0.000512083083365 5.48640655542e-06 0)
(0.00121284666552 0.000152613522862 0)
(0.00124173054984 0.000326653423369 0)
(0.00126581864755 0.000397189631596 0)
(0.00127217700451 0.000406057828976 0)
(0.00126106189518 0.000384465147449 0)
(0.00123711164337 0.000350226441346 0)
(0.00120516014275 0.000312440855318 0)
(0.00116903737205 0.000275447534403 0)
(0.00113147655458 0.000241136698658 0)
(0.00109431663799 0.000210172975946 0)
(0.00105873598859 0.000182625487542 0)
(0.00102544764669 0.000158289663322 0)
(0.000994846565081 0.000136850420184 0)
(0.000967115704641 0.000117963503603 0)
(0.000942300623936 0.000101294458263 0)
(0.000920361083945 8.65356909697e-05 0)
(0.000901206300062 7.34123387935e-05 0)
(0.000884718732432 6.16825868957e-05 0)
(0.000870769923674 5.11354104804e-05 0)
(0.000859230861739 4.15872939448e-05 0)
(0.000849978599769 3.28787189554e-05 0)
(0.000842900334837 2.48708055928e-05 0)
(0.000837895774881 1.74422745231e-05 0)
(0.000834878362951 1.04867862081e-05 0)
(0.000833775746748 3.91065788618e-06 0)
(0.000834529755726 -2.36906571232e-06 0)
(0.000837096055963 -8.42620674327e-06 0)
(0.000841443598615 -1.43267657265e-05 0)
(0.0008475539364 -2.01299848389e-05 0)
(0.000855420441642 -2.58891546094e-05 0)
(0.000865047439369 -3.16521902237e-05 0)
(0.000876449254143 -3.74619832329e-05 0)
(0.000889649154671 -4.33565268977e-05 0)
(0.000904678168438 -4.93688063352e-05 0)
(0.000921573728252 -5.55264384045e-05 0)
(0.000940378103293 -6.18510412526e-05 0)
(0.000961136558779 -6.83573105337e-05 0)
(0.000983895180965 -7.50517795892e-05 0)
(0.0010086982984 -8.19312461599e-05 0)
(0.00103558542741 -8.89808606833e-05 0)
(0.00106458767126 -9.6171893889e-05 0)
(0.00109572351089 -0.000103459237368 0)
(0.0011289939438 -0.000110778743205 0)
(0.00116437696104 -0.000118044579209 0)
(0.00120182140465 -0.000125146863538 0)
(0.00124124032439 -0.000131949939219 0)
(0.00128250405569 -0.000138291739728 0)
(0.00132543336834 -0.000143984754583 0)
(0.00136979317675 -0.000148819093234 0)
(0.00141528743542 -0.000152568028592 0)
(0.00146155593056 -0.000154996156971 0)
(0.00150817367914 -0.00015586995701 0)
(0.00155465352663 -0.000154970144255 0)
(0.00160045229807 -0.000152104928868 0)
(0.00164498055724 -0.000147123213201 0)
(0.00168761576336 -0.000139926930323 0)
(0.00172771845941 -0.000130481966151 0)
(0.00176465106967 -0.000118827153998 0)
(0.00179779879716 -0.000105080518413 0)
(0.00182659184938 -8.94414455983e-05 0)
(0.00185052777021 -7.21872076739e-05 0)
(0.00186919216789 -5.36625819629e-05 0)
(0.00188227577354 -3.42621790869e-05 0)
(0.0018895856885 -1.44065504073e-05 0)
(0.00189104916958 5.4847834239e-06 0)
(0.00188670959132 2.50185218657e-05 0)
(0.00187671587378 4.38463446224e-05 0)
(0.0018613078083 6.16749661707e-05 0)
(0.0018408000278 7.82674738228e-05 0)
(0.00181556698899 9.34380023192e-05 0)
(0.00178603034981 0.00010704339915 0)
(0.00175264885929 0.000118975571175 0)
(0.00171590992659 0.000129156789549 0)
(0.00167632173877 0.000137538424388 0)
(0.001634405011 0.00014410232288 0)
(0.00159068386438 0.000148863469549 0)
(0.00154567576186 0.000151872412025 0)
(0.00149988084503 0.000153216055266 0)
(0.00145377135808 0.000153015829216 0)
(0.00140778203784 0.000151422886741 0)
(0.00136230232346 0.000148610721725 0)
(0.00131767100544 0.000144766177401 0)
(0.00127417357514 0.000140080074811 0)
(0.00123204216865 0.000134738607644 0)
(0.00119145771625 0.000128916324917 0)
(0.00115255375271 0.000122771108945 0)
(0.00111542130965 0.000116441181148 0)
(0.00108011436356 0.000110043903243 0)
(0.00104665541372 0.000103676000659 0)
(0.00101504087752 9.74147977075e-05 0)
(0.000985246097536 9.13200855228e-05 0)
(0.000957229841802 8.54363109236e-05 0)
(0.00093093824606 7.97948522263e-05 0)
(0.00090630819316 7.44162213895e-05 0)
(0.000883270155628 6.93120930899e-05 0)