/*--------------------------------*- C++ -*----------------------------------*\
  =========                 |
  \\      /  F ield         | OpenFOAM: The Open Source CFD Toolbox
   \\    /   O peration     | Website:  https://openfoam.org
    \\  /    A nd           | Version:  7
     \\/     M anipulation  |
\*---------------------------------------------------------------------------*/
FoamFile
{
    version     2.0;
    format      ascii;
    class       volScalarField;
    location    "1620";
    object      Ci;
}
// * * * * * * * * * * * * * * * * * * * * * * * * * * * * * * * * * * * * * //

dimensions      [0 -3 0 0 1 0 0];

internalField   nonuniform List<scalar> 
8192
(
10.0000000052
9.99999998278
9.99999996667
9.99999997022
9.9999999986
10.0000000397
10.0000000843
10.0000001255
10.0000001605
10.0000001853
10.0000001981
10.0000001947
10.0000001742
10.0000001325
10.0000000701
9.99999998326
9.99999987378
9.99999973887
9.99999958164
9.99999940008
9.99999919869
9.99999897603
9.99999873793
9.99999848335
9.9999982192
9.99999794463
9.99999766734
9.99999738631
9.99999710964
9.99999683573
9.99999657263
9.99999631767
9.99999607835
9.99999585063
9.99999564122
9.99999544438
9.99999526566
9.99999509741
9.99999494385
9.9999947954
9.99999465497
9.99999451125
9.99999436614
9.99999420704
9.99999403536
9.9999938379
9.99999361646
9.99999335831
9.99999306684
9.99999273127
9.99999235824
9.99999194068
9.99999149027
9.99999100517
9.99999050325
9.99998998834
9.99998948392
9.99998899778
9.99998855613
9.99998816677
9.9999878539
9.99998762072
9.99998748545
9.99998744447
9.9999875094
9.99998767068
9.99998793442
9.99998828608
9.99998872655
9.99998923701
9.99998981465
9.99999043934
9.99999110818
9.99999180333
9.99999252432
9.99999325694
9.99999400362
9.999994754
9.99999551364
9.99999627625
9.99999705046
9.99999783339
9.99999863552
9.99999945555
10.0000003037
10.000001178
10.0000020866
10.0000030257
10.000004
10.0000050032
10.0000060368
10.0000070923
10.0000081687
10.0000092563
10.0000103537
10.0000114534
10.0000125515
10.000013637
10.0000147042
10.0000157426
10.0000167469
10.0000177079
10.0000186208
10.0000194786
10.0000202773
10.0000210117
10.0000216791
10.000022276
10.0000228008
10.0000232517
10.0000236279
10.0000239294
10.0000241561
10.0000243096
10.0000243905
10.0000244015
10.0000243439
10.0000242214
10.0000240353
10.0000237897
10.0000234855
10.0000231268
10.0000227149
10.000022257
10.0000217614
10.0000212503
10.0000207654
10.0000204129
9.99999998844
9.99999997743
9.99999997507
9.99999998984
10.0000000206
10.0000000599
10.0000001028
10.0000001445
10.0000001824
10.0000002125
10.0000002325
10.0000002386
10.0000002293
10.000000201
10.0000001532
10.0000000828
9.99999999075
9.99999987467
9.99999973678
9.99999957556
9.99999939451
9.99999919274
9.999998975
9.99999874098
9.99999849642
9.99999824131
9.99999798213
9.99999771885
9.99999745833
9.99999720011
9.999996951
9.99999670963
9.9999964821
9.999996266
9.99999606676
9.99999588037
9.99999571108
9.99999555308
9.99999540924
9.99999527188
9.99999514244
9.99999501147
9.99999487919
9.99999473469
9.99999457743
9.99999439567
9.9999941889
9.99999394558
9.9999936665
9.99999334183
9.99999297534
9.99999256077
9.99999210665
9.99999161188
9.99999109092
9.99999054829
9.99999000391
9.99998946653
9.999988959
9.99998849104
9.99998808453
9.99998774637
9.99998749411
9.99998732966
9.99998726514
9.99998729731
9.99998743292
9.9999876636
9.99998799063
9.99998840092
9.99998889156
9.99998944701
9.999990063
9.99999072437
9.99999142766
9.99999215957
9.99999291832
9.99999369328
9.99999448521
9.9999952869
9.99999610217
9.99999692727
9.99999776846
9.99999862418
9.9999995015
10.0000003993
10.0000013236
10.0000022721
10.0000032487
10.0000042492
10.0000052745
10.0000063185
10.0000073799
10.0000084508
10.0000095307
10.0000106171
10.0000117031
10.0000127779
10.0000138356
10.0000148664
10.0000158649
10.0000168226
10.0000177346
10.0000185941
10.0000193972
10.0000201388
10.0000208158
10.0000214249
10.0000219643
10.0000224321
10.0000228273
10.0000231497
10.0000233992
10.000023577
10.0000236836
10.0000237216
10.000023692
10.0000235984
10.0000234421
10.0000232269
10.0000229539
10.0000226269
10.0000222474
10.0000218216
10.0000213557
10.0000208624
10.0000203582
10.0000199431
9.99999998954
10.0000000045
10.0000000245
10.0000000473
10.0000000787
10.000000116
10.0000001579
10.0000002009
10.0000002443
10.0000002837
10.0000003181
10.0000003427
10.000000357
10.0000003561
10.0000003403
10.0000003052
10.0000002524
10.0000001779
10.0000000847
9.99999996944
9.99999983641
9.99999968294
9.99999951453
9.999999329
9.99999913302
9.99999892467
9.99999871154
9.99999849175
9.99999827346
9.99999805449
9.99999784319
9.99999763667
9.99999744299
9.99999725819
9.99999708969
9.99999693212
9.9999967919
9.99999666189
9.99999654729
9.99999643896
9.99999634077
9.99999624161
9.99999614411
9.99999603545
9.99999591739
9.99999577602
9.99999561296
9.99999541415
9.99999518225
9.99999490443
9.99999458584
9.99999421643
9.99999380542
9.99999334683
9.99999285494
9.99999232842
9.99999178641
9.99999123146
9.99999068595
9.9999901542
9.99998965911
9.99998920414
9.99998881012
9.99998847784
9.99998822476
9.9999880485
9.9999879627
9.99998796147
9.99998805406
9.99998823086
9.99998849698
9.99998884009
9.99998926266
9.99998975125
9.99999030689
9.99999091592
9.99999157859
9.99999228171
9.99999302573
9.99999379905
9.99999460344
9.99999542973
9.99999628143
9.99999715169
9.99999804518
9.99999895654
9.99999989058
10.0000008423
10.0000018155
10.0000028047
10.0000038122
10.0000048313
10.0000058625
10.0000068983
10.0000079375
10.0000089742
10.0000100064
10.0000110261
10.0000120295
10.0000130087
10.0000139593
10.000014874
10.0000157486
10.000016577
10.0000173555
10.0000180793
10.0000187454
10.0000193506
10.0000198925
10.0000203697
10.0000207804
10.0000211245
10.0000214011
10.0000216116
10.0000217556
10.0000218358
10.0000218524
10.0000218092
10.0000217068
10.0000215494
10.0000213375
10.0000210753
10.0000207634
10.0000204083
10.0000200126
10.0000195872
10.0000191189
10.0000187318
9.99999999042
10.0000000317
10.0000000637
10.0000001004
10.0000001436
10.0000001902
10.0000002391
10.0000002889
10.000000339
10.0000003871
10.0000004322
10.0000004712
10.000000503
10.0000005245
10.0000005348
10.000000531
10.0000005128
10.000000478
10.0000004271
10.0000003586
10.0000002742
10.0000001728
10.0000000573
9.99999992735
9.99999978655
9.99999963536
9.99999947795
9.99999931528
9.99999915183
9.99999898877
9.99999883048
9.99999867806
9.99999853527
9.99999840274
9.99999828325
9.99999817647
9.99999808397
9.99999800389
9.99999793656
9.99999787815
9.99999782782
9.99999777968
9.99999773185
9.99999767676
9.99999761182
9.99999752846
9.99999742395
9.99999728975
9.99999712387
9.99999691884
9.99999667451
9.99999638567
9.99999605509
9.99999568081
9.99999526929
9.99999482234
9.9999943502
9.99999385812
9.99999335915
9.99999286053
9.9999923762
9.99999191333
9.99999148465
9.99999109555
9.99999075656
9.9999904709
9.99999024686
9.9999900854
9.99998999239
9.99998996644
9.99999001124
9.99999012378
9.99999030655
9.99999055577
9.99999087304
9.99999125367
9.99999169791
9.9999921999
9.99999275864
9.99999336766
9.99999402541
9.99999472554
9.99999546656
9.9999962426
9.99999705245
9.9999978908
9.9999987566
9.99999964494
10.0000005547
10.0000014809
10.0000024221
10.0000033731
10.0000043318
10.0000052928
10.000006253
10.0000072072
10.0000081523
10.0000090829
10.0000099955
10.0000108846
10.0000117463
10.0000125753
10.0000133679
10.0000141196
10.0000148268
10.000015486
10.0000160942
10.0000166489
10.000017148
10.00001759
10.0000179736
10.0000182983
10.0000185637
10.0000187703
10.0000189185
10.00001901
10.0000190457
10.0000190283
10.0000189593
10.000018842
10.000018678
10.0000184709
10.0000182218
10.0000179373
10.000017611
10.0000172708
10.0000168351
10.0000166325
10.0000000002
10.0000000653
10.0000001241
10.0000001755
10.0000002276
10.0000002801
10.0000003332
10.0000003864
10.0000004398
10.0000004917
10.0000005416
10.0000005873
10.0000006279
10.0000006611
10.000000686
10.0000007004
10.0000007039
10.0000006946
10.0000006728
10.0000006371
10.0000005887
10.0000005268
10.0000004533
10.0000003684
10.0000002747
10.000000173
10.0000000663
9.9999999565
9.99999984615
9.9999997382
9.99999963421
9.99999953815
9.99999944984
9.99999937409
9.99999930852
9.99999925816
9.99999921864
9.99999919396
9.99999917874
9.99999917446
9.99999917589
9.99999918117
9.99999918585
9.99999918509
9.99999917518
9.99999914954
9.99999910507
9.99999903482
9.99999893649
9.99999880393
9.99999863628
9.9999984291
9.99999818383
9.99999789859
9.99999757782
9.99999722283
9.99999684131
9.99999643761
9.99999602208
9.99999560099
9.99999518559
9.99999478207
9.99999440045
9.999994045
9.99999372343
9.99999343778
9.99999319363
9.99999299119
9.99999283427
9.99999272175
9.99999265645
9.99999263699
9.99999266639
9.99999274391
9.99999287297
9.99999305302
9.99999328696
9.99999357359
9.99999391472
9.99999430827
9.9999947549
9.99999525164
9.999995798
9.99999639006
9.99999702616
9.99999770157
9.99999841365
9.99999915711
9.99999992863
10.0000007226
10.0000015353
10.0000023611
10.000003196
10.0000040343
10.000004872
10.0000057038
10.0000065256
10.0000073326
10.0000081209
10.0000088863
10.0000096251
10.0000103334
10.0000110079
10.0000116454
10.000012243
10.0000127982
10.0000133088
10.0000137729
10.000014189
10.0000145561
10.0000148735
10.000015141
10.0000153584
10.0000155266
10.0000156461
10.0000157184
10.0000157448
10.0000157277
10.0000156688
10.0000155714
10.0000154371
10.00001527
10.0000150692
10.0000148462
10.0000145799
10.0000143356
10.0000139213
10.0000139272
9.99999999977
10.0000000788
10.0000001456
10.0000002131
10.0000002815
10.0000003472
10.00000041
10.0000004698
10.0000005277
10.000000583
10.0000006354
10.0000006838
10.0000007276
10.0000007651
10.0000007959
10.0000008184
10.0000008321
10.0000008358
10.0000008295
10.0000008125
10.0000007853
10.0000007481
10.0000007017
10.0000006476
10.0000005864
10.0000005211
10.0000004517
10.0000003836
10.0000003141
10.0000002524
10.0000001913
10.0000001452
10.0000001001
10.0000000769
10.0000000533
10.0000000563
10.0000000568
10.0000000841
10.000000107
10.0000001513
10.0000001899
10.0000002396
10.0000002815
10.0000003218
10.0000003501
10.0000003651
10.0000003611
10.000000334
10.0000002804
10.000000196
10.000000079
9.99999992646
9.99999973833
9.9999995139
9.99999925579
9.99999896617
9.99999865069
9.99999831468
9.99999796645
9.99999761355
9.99999726533
9.99999692929
9.99999661331
9.99999632238
9.99999606125
9.99999583178
9.99999563592
9.99999547296
9.99999534297
9.99999524379
9.99999517511
9.99999513502
9.99999512443
9.99999514297
9.99999519312
9.99999527561
9.99999539347
9.99999554758
9.99999574085
9.99999597403
9.9999962496
9.99999656775
9.99999692996
9.99999733525
9.99999778354
9.99999827236
9.99999879998
9.99999936249
9.99999995678
10.0000005779
10.0000012218
10.0000018829
10.0000025567
10.0000032375
10.0000039206
10.0000046005
10.0000052729
10.0000059328
10.0000065763
10.000007199
10.0000077977
10.0000083687
10.0000089095
10.0000094172
10.0000098898
10.0000103253
10.0000107223
10.0000110795
10.0000113963
10.0000116721
10.0000119068
10.0000121007
10.0000122542
10.0000123682
10.0000124438
10.0000124826
10.0000124861
10.0000124566
10.0000123961
10.0000123076
10.0000121928
10.0000120565
10.0000118948
10.000011726
10.000011508
10.0000113542
10.0000109727
10.0000111202
10.0000000067
10.0000000969
10.0000001826
10.0000002601
10.0000003357
10.0000004075
10.0000004746
10.0000005372
10.0000005958
10.0000006513
10.0000007031
10.0000007507
10.0000007936
10.0000008309
10.0000008619
10.0000008859
10.0000009023
10.0000009106
10.0000009104
10.0000009021
10.0000008851
10.0000008614
10.0000008298
10.0000007944
10.0000007524
10.000000712
10.0000006653
10.0000006285
10.0000005836
10.0000005602
10.0000005227
10.0000005224
10.0000004968
10.0000005264
10.0000005157
10.0000005769
10.0000005833
10.00000067
10.0000006948
10.0000007938
10.0000008354
10.0000009299
10.0000009805
10.0000010548
10.000001099
10.0000011413
10.0000011595
10.0000011592
10.0000011333
10.0000010801
10.0000009969
10.0000008817
10.0000007335
10.000000552
10.0000003385
10.0000000953
9.99999982668
9.99999953815
9.99999923695
9.99999893134
9.99999863017
9.99999834203
9.99999807451
9.99999783344
9.99999762283
9.99999744457
9.99999729905
9.99999718493
9.99999710023
9.99999704207
9.99999700805
9.99999699567
9.99999700372
9.99999703132
9.99999707886
9.9999971467
9.99999723597
9.99999734754
9.99999748293
9.99999764357
9.99999783138
9.99999804799
9.99999829512
9.99999857389
9.99999888499
9.99999922834
9.99999960318
10.000000008
10.0000004404
10.0000008977
10.0000013763
10.0000018722
10.0000023813
10.0000028991
10.000003421
10.0000039425
10.000004459
10.0000049663
10.0000054605
10.0000059377
10.0000063947
10.0000068285
10.0000072365
10.0000076166
10.000007967
10.0000082864
10.0000085736
10.0000088282
10.0000090497
10.0000092383
10.0000093942
10.000009518
10.0000096106
10.0000096731
10.000009707
10.0000097137
10.0000096953
10.0000096536
10.000009591
10.0000095101
10.0000094122
10.0000093032
10.0000091761
10.0000090549
10.0000088839
10.0000087992
10.0000084819
10.0000086728
10.0000000019
10.0000000962
10.0000001812
10.0000002688
10.0000003571
10.0000004404
10.0000005166
10.0000005855
10.000000648
10.0000007047
10.000000757
10.0000008038
10.0000008454
10.0000008811
10.0000009108
10.0000009338
10.0000009499
10.0000009589
10.0000009603
10.0000009555
10.0000009428
10.0000009264
10.0000009018
10.0000008791
10.0000008462
10.0000008253
10.0000007879
10.0000007798
10.0000007401
10.0000007584
10.0000007158
10.000000775
10.0000007256
10.0000008379
10.0000007773
10.0000009465
10.0000008755
10.00000109
10.0000010197
10.0000012497
10.0000011996
10.0000014059
10.0000013912
10.0000015431
10.0000015593
10.0000016472
10.0000016691
10.0000016988
10.000001695
10.0000016711
10.0000016191
10.0000015378
10.0000014256
10.000001281
10.0000011043
10.0000008972
10.0000006627
10.000000406
10.000000134
9.99999985569
9.99999958038
9.99999931818
9.99999907758
9.99999886574
9.99999868674
9.9999985427
9.99999843295
9.99999835527
9.99999830615
9.99999828182
9.99999827904
9.99999829477
9.99999832751
9.99999837583
9.99999843991
9.99999851904
9.9999986141
9.99999872455
9.9999988509
9.99999899257
9.99999915075
9.99999932503
9.99999951809
9.99999973069
9.99999996396
10.000000218
10.0000004931
10.0000007884
10.0000011029
10.0000014349
10.0000017824
10.0000021426
10.0000025127
10.0000028894
10.0000032693
10.0000036488
10.0000040245
10.0000043928
10.0000047506
10.0000050948
10.0000054227
10.0000057319
10.0000060203
10.0000062861
10.0000065283
10.0000067456
10.0000069376
10.000007104
10.0000072448
10.0000073603
10.0000074512
10.0000075182
10.0000075625
10.0000075852
10.0000075878
10.000007572
10.0000075395
10.0000074922
10.0000074324
10.000007362
10.0000072828
10.0000071996
10.0000071057
10.0000070238
10.000006901
10.0000068591
10.0000066292
10.000006797
10.0000000082
10.0000001112
10.0000002111
10.0000003033
10.000000394
10.0000004801
10.0000005591
10.0000006301
10.0000006936
10.0000007502
10.0000008012
10.0000008466
10.0000008861
10.0000009198
10.0000009471
10.0000009685
10.0000009826
10.0000009913
10.0000009919
10.0000009891
10.0000009769
10.0000009665
10.0000009431
10.0000009326
10.0000008996
10.0000009009
10.0000008569
10.0000008879
10.0000008253
10.000000911
10.0000008123
10.0000009856
10.0000008233
10.0000011199
10.0000008634
10.0000013088
10.0000009426
10.0000015284
10.0000010768
10.0000017398
10.0000012791
10.0000019065
10.0000015391
10.0000020181
10.0000018101
10.0000020934
10.0000020276
10.0000021502
10.0000021464
10.0000021713
10.000002153
10.0000021128
10.0000020412
10.0000019373
10.0000018
10.00000163
10.0000014281
10.0000011998
10.0000009508
10.0000006909
10.0000004297
10.0000001788
9.99999994794
9.99999974572
9.99999957685
9.99999944375
9.99999934508
9.99999927791
9.99999923776
9.99999922099
9.9999992241
9.99999924531
9.99999928245
9.99999933536
9.99999940472
9.99999949088
9.99999959332
9.99999971113
9.99999984288
9.99999998731
10.0000001432
10.0000003098
10.0000004864
10.0000006729
10.0000008695
10.0000010756
10.0000012924
10.0000015208
10.00000176
10.0000020089
10.000002266
10.0000025298
10.000002798
10.0000030687
10.0000033393
10.0000036076
10.000003871
10.0000041271
10.0000043735
10.0000046083
10.0000048294
10.0000050352
10.0000052243
10.0000053955
10.0000055482
10.0000056817
10.0000057959
10.0000058909
10.000005967
10.0000060247
10.0000060648
10.0000060882
10.0000060962
10.0000060898
10.0000060706
10.0000060399
10.0000059997
10.0000059509
10.0000058966
10.0000058372
10.0000057756
10.0000057139
10.0000056494
10.0000055961
10.0000055178
10.0000054988
10.0000053545
10.0000054775
10.0000000021
10.0000001088
10.0000002066
10.000000307
10.0000004081
10.0000005038
10.0000005908
10.0000006679
10.0000007357
10.0000007948
10.0000008464
10.0000008919
10.0000009306
10.0000009631
10.0000009888
10.000001009
10.0000010216
10.0000010302
10.0000010294
10.000001029
10.0000010153
10.0000010121
10.0000009853
10.0000009907
10.0000009476
10.0000009812
10.0000009098
10.000001004
10.0000008757
10.0000010829
10.0000008423
10.0000012423
10.0000008014
10.0000015008
10.0000007471
10.0000018569
10.0000006928
10.00000227
10.0000006887
10.0000026508
10.0000008176
10.000002889
10.0000011446
10.0000029277
10.0000016398
10.0000028303
10.0000021563
10.0000027353
10.0000025261
10.0000027152
10.0000026897
10.0000027108
10.0000026801
10.0000026187
10.0000025204
10.0000023839
10.00000221
10.000002004
10.0000017704
10.0000015196
10.0000012623
10.0000010125
10.0000007822
10.0000005825
10.0000004183
10.0000002924
10.0000002013
10.0000001406
10.0000001033
10.0000000845
10.0000000823
10.0000000923
10.0000001158
10.0000001548
10.0000002113
10.0000002863
10.0000003798
10.0000004905
10.0000006168
10.0000007563
10.0000009071
10.0000010671
10.0000012346
10.0000014078
10.0000015857
10.0000017673
10.0000019517
10.0000021392
10.0000023289
10.0000025219
10.0000027178
10.0000029151
10.0000031125
10.0000033084
10.000003501
10.0000036886
10.0000038696
10.0000040425
10.0000042056
10.0000043577
10.0000044977
10.0000046244
10.0000047373
10.0000048357
10.0000049195
10.0000049886
10.0000050432
10.0000050836
10.0000051104
10.0000051244
10.0000051266
10.0000051177
10.0000050991
10.0000050718
10.0000050374
10.0000049966
10.0000049519
10.0000049032
10.000004854
10.0000048034
10.0000047559
10.0000047096
10.0000046676
10.0000046329
10.0000045894
10.0000045807
10.0000045028
10.0000045862
10.0000000091
10.000000126
10.0000002398
10.0000003444
10.0000004469
10.0000005442
10.0000006334
10.0000007129
10.0000007823
10.0000008426
10.0000008943
10.0000009396
10.0000009773
10.000001009
10.0000010331
10.0000010527
10.0000010633
10.0000010726
10.0000010695
10.0000010728
10.0000010552
10.0000010617
10.0000010264
10.0000010535
10.0000009894
10.0000010686
10.0000009464
10.000001135
10.0000008899
10.00000129
10.0000007971
10.0000015815
10.0000006282
10.0000020628
10.0000003382
10.0000027691
9.99999991238
10.0000036692
9.99999942724
10.0000046031
9.99999909924
10.0000052716
9.99999923723
10.0000053735
10.0000000294
10.0000048657
10.0000012803
10.0000041073
10.0000024618
10.0000035836
10.00000316
10.0000034272
10.0000033877
10.0000033918
10.0000033414
10.0000032448
10.0000031044
10.0000029215
10.0000027052
10.0000024614
10.0000022029
10.0000019479
10.0000017125
10.000001506
10.0000013319
10.0000011916
10.0000010841
10.0000010068
10.0000009522
10.0000009179
10.0000008948
10.0000008824
10.0000008821
10.0000008966
10.0000009287
10.0000009805
10.0000010526
10.0000011443
10.0000012538
10.0000013788
10.0000015166
10.0000016646
10.00000182
10.0000019803
10.000002143
10.0000023067
10.0000024694
10.0000026307
10.0000027895
10.0000029458
10.0000030993
10.0000032504
10.0000033984
10.0000035422
10.0000036803
10.0000038117
10.0000039351
10.0000040494
10.0000041536
10.000004247
10.000004329
10.0000043992
10.0000044573
10.0000045032
10.0000045373
10.0000045597
10.000004571
10.0000045718
10.0000045629
10.0000045452
10.0000045198
10.0000044875
10.0000044497
10.0000044072
10.0000043617
10.0000043135
10.0000042652
10.000004216
10.00000417
10.0000041245
10.0000040861
10.0000040489
10.0000040217
10.0000039971
10.0000039766
10.0000039719
10.0000039373
10.0000039924
10.0000000029
10.0000001246
10.0000002374
10.0000003513
10.0000004648
10.0000005721
10.0000006699
10.0000007564
10.0000008312
10.0000008956
10.0000009498
10.0000009966
10.0000010347
10.0000010668
10.0000010901
10.00000111
10.0000011191
10.0000011299
10.0000011242
10.0000011322
10.0000011097
10.0000011272
10.0000010809
10.000001132
10.0000010418
10.0000011723
10.0000009881
10.0000012858
10.0000008975
10.0000015302
10.000000717
10.0000019938
10.0000003504
10.0000028025
9.99999966076
10.0000041019
9.99999851319
10.000005979
9.99999689713
10.0000082985
9.9999951229
10.0000105168
9.999993954
10.0000116954
9.99999434874
10.000011024
9.99999668334
10.0000087024
10.0000000447
10.0000061367
10.0000027637
10.0000046784
10.0000040087
10.0000043056
10.0000042576
10.0000042034
10.000004101
10.0000039467
10.0000037373
10.0000034835
10.0000032166
10.0000029727
10.0000027418
10.0000024858
10.0000021872
10.0000018809
10.0000016265
10.0000014651
10.0000014031
10.0000014124
10.0000014567
10.0000015093
10.0000015562
10.0000015953
10.0000016324
10.0000016746
10.0000017281
10.000001796
10.0000018796
10.0000019781
10.0000020898
10.000002212
10.0000023418
10.0000024763
10.000002613
10.0000027496
10.0000028847
10.0000030171
10.0000031459
10.0000032705
10.0000033908
10.0000035062
10.0000036169
10.0000037225
10.0000038216
10.0000039132
10.0000039963
10.00000407
10.0000041338
10.0000041869
10.0000042293
10.0000042607
10.0000042812
10.0000042912
10.000004291
10.0000042813
10.0000042629
10.0000042365
10.0000042032
10.0000041638
10.0000041197
10.0000040715
10.0000040208
10.000003968
10.0000039152
10.000003862
10.0000038115
10.0000037617
10.0000037179
10.0000036753
10.0000036427
10.0000036105
10.0000035924
10.0000035731
10.0000035665
10.0000035626
10.0000035535
10.0000035901
10.0000000105
10.000000144
10.0000002739
10.0000003926
10.0000005079
10.0000006176
10.0000007184
10.0000008085
10.0000008866
10.0000009538
10.0000010099
10.0000010581
10.0000010966
10.0000011291
10.0000011517
10.000001172
10.0000011796
10.0000011918
10.0000011838
10.0000011954
10.0000011689
10.0000011948
10.0000011406
10.0000012092
10.0000011013
10.000001268
10.0000010421
10.0000014169
10.0000009284
10.0000017327
10.000000677
10.000002349
10.0000001237
10.0000034918
9.99999898868
10.0000055042
9.99999687855
10.0000087978
9.99999341339
10.0000136185
9.99998860577
10.0000195416
9.99998345801
10.0000248748
9.99998031124
10.0000268287
9.99998189304
10.0000233811
9.99998872602
10.0000159402
9.99999737842
10.0000090981
10.0000031862
10.0000059671
10.0000051364
10.0000053218
10.0000053044
10.000005172
10.0000049232
10.0000046528
10.000004547
10.0000044622
10.0000038872
10.0000023989
10.0000001278
9.99999774229
9.99999600257
9.99999533465
9.99999572009
9.99999680692
9.99999816688
9.99999945688
10.0000004922
10.0000012296
10.0000017121
10.0000020131
10.000002202
10.0000023309
10.0000024341
10.0000025318
10.0000026346
10.0000027465
10.0000028664
10.0000029907
10.0000031142
10.0000032327
10.0000033432
10.0000034443
10.0000035364
10.0000036205
10.000003698
10.0000037703
10.0000038383
10.0000039022
10.0000039624
10.0000040169
10.0000040644
10.000004104
10.0000041346
10.0000041558
10.0000041672
10.0000041689
10.0000041611
10.0000041443
10.0000041191
10.0000040863
10.0000040468
10.0000040015
10.0000039515
10.0000038976
10.0000038412
10.0000037829
10.0000037243
10.0000036654
10.0000036085
10.0000035526
10.0000035013
10.0000034515
10.0000034097
10.0000033688
10.0000033403
10.0000033106
10.0000032983
10.0000032809
10.000003283
10.0000032779
10.000003284
10.0000033067
10.0000000045
10.0000001434
10.0000002731
10.0000004018
10.0000005289
10.0000006493
10.0000007597
10.0000008581
10.0000009433
10.000001016
10.0000010767
10.000001128
10.0000011683
10.0000012021
10.000001225
10.0000012459
10.0000012531
10.0000012658
10.0000012574
10.0000012699
10.0000012437
10.0000012709
10.0000012188
10.0000012884
10.0000011865
10.0000013519
10.000001139
10.0000015076
10.0000010405
10.0000018366
10.0000007979
10.0000024937
10.0000002067
10.0000037782
9.999998863
10.0000062384
9.99999605424
10.0000107655
9.99999072738
10.000018514
9.99998179631
10.0000302586
9.99996919316
10.0000448791
9.99995571087
10.0000575806
9.99994803309
10.000060533
9.99995353468
10.0000489078
9.99997223714
10.0000285365
9.9999929129
10.0000128599
10.0000039516
10.000007302
10.0000067579
10.0000063265
10.0000059687
10.0000065711
10.0000077168
10.0000055856
9.9999954892
9.99997628932
9.999952352
9.99993117364
9.99991895634
9.99991800704
9.99992669035
9.99994111025
9.99995709301
9.99997153817
9.99998288973
9.9999908985
9.99999608161
9.99999921189
10.0000010036
10.0000019865
10.000002505
10.0000027637
10.0000028824
10.0000029341
10.0000029668
10.0000030115
10.0000030852
10.0000031913
10.0000033235
10.0000034692
10.000003615
10.0000037489
10.0000038631
10.000003954
10.0000040215
10.0000040685
10.0000040981
10.0000041156
10.0000041219
10.0000041193
10.0000041097
10.0000040939
10.0000040726
10.0000040461
10.0000040144
10.0000039777
10.0000039362
10.0000038899
10.0000038397
10.0000037856
10.0000037287
10.0000036693
10.0000036089
10.0000035474
10.000003487
10.0000034266
10.0000033698
10.0000033137
10.000003264
10.0000032149
10.0000031759
10.0000031358
10.0000031113
10.0000030818
10.0000030745
10.0000030557
10.0000030642
10.0000030539
10.0000030703
10.0000030775
10.0000000124
10.0000001636
10.0000003106
10.0000004444
10.0000005736
10.0000006967
10.0000008108
10.0000009137
10.0000010036
10.0000010809
10.0000011454
10.0000011994
10.0000012414
10.0000012764
10.0000013
10.0000013208
10.0000013283
10.00000134
10.0000013329
10.0000013427
10.0000013212
10.0000013417
10.0000013023
10.0000013555
10.0000012842
10.0000014096
10.0000012663
10.0000015413
10.0000012264
10.0000018152
10.0000010936
10.0000023606
10.0000006908
10.0000034565
9.99999961443
10.0000057023
9.99999700653
10.00001031
9.99999122244
10.0000194591
9.99997957336
10.0000362509
9.9999589164
10.0000632027
9.9999284533
10.0000979847
9.99989514747
10.0001279773
9.99987700313
10.0001320649
9.9998934481
10.0000987826
9.9999415508
10.000048212
9.99998685792
10.0000175142
10.0000055486
10.0000062075
10.0000097462
10.0000172062
10.0000090513
9.99994939356
9.99981608824
9.99962436465
9.99942461875
9.99927477915
9.99921104237
9.99923819472
9.99933548222
9.99947030448
9.99961098423
9.99973505174
9.99983171425
9.99989985319
9.99994404631
9.99997080951
9.99998618583
9.99999473964
9.99999947286
10.0000021467
10.0000036865
10.0000045298
10.0000048771
10.000004844
10.0000045341
10.0000040578
10.0000035236
10.0000030226
10.0000026179
10.0000023416
10.000002199
10.0000021764
10.0000022491
10.0000023887
10.0000025684
10.0000027649
10.0000029617
10.0000031432
10.0000033013
10.000003432
10.0000035338
10.0000036073
10.0000036545
10.0000036778
10.0000036805
10.0000036656
10.0000036364
10.0000035952
10.0000035457
10.000003489
10.0000034289
10.0000033652
10.0000033025
10.0000032382
10.0000031792
10.0000031188
10.0000030684
10.0000030148
10.000002977
10.0000029314
10.00000291
10.0000028723
10.0000028699
10.0000028376
10.000002853
10.0000028204
10.0000028463
10.0000028142
10.0000000065
10.0000001633
10.0000003104
10.0000004543
10.000000595
10.0000007288
10.0000008526
10.0000009645
10.0000010624
10.0000011468
10.000001217
10.0000012752
10.0000013206
10.0000013575
10.0000013828
10.0000014036
10.0000014127
10.0000014224
10.0000014184
10.0000014236
10.0000014093
10.0000014197
10.0000013975
10.0000014276
10.0000013956
10.0000014678
10.0000014126
10.0000015658
10.0000014463
10.0000017584
10.0000014676
10.0000021166
10.0000013832
10.0000028067
10.0000009394
10.0000042452
9.99999948301
10.000007471
9.99999543805
10.0000148873
9.99998532266
10.0000313894
9.99996266669
10.0000649555
9.99991871822
10.0001235124
9.99984926533
10.0002035957
9.99976987391
10.0002743034
9.99972651397
10.0002802744
9.99977127165
10.0001908723
9.99989130926
10.0000770761
9.99997242705
10.0000209119
10.0000480785
10.000022899
9.99974555204
9.99902189019
9.99784095672
9.99642886238
9.99515655083
9.99434860691
9.99414911141
9.99451850478
9.99529415689
9.99626820373
9.99725063998
9.99810922929
9.99878048175
9.99925833798
9.9995719632
9.99976367696
9.99987379687
9.99993372017
9.99996497426
9.9999810607
9.99998985113
9.99999555892
10.000000145
10.0000042796
10.000007995
10.0000111005
10.0000134155
10.0000148656
10.0000154941
10.00001543
10.0000148452
10.0000139161
10.0000127994
10.0000116185
10.0000104622
10.0000093863
10.0000084219
10.00000758
10.0000068568
10.000006243
10.0000057259
10.0000052911
10.0000049254
10.0000046157
10.0000043521
10.0000041249
10.0000039281
10.0000037544
10.0000036021
10.0000034642
10.0000033433
10.0000032306
10.0000031341
10.0000030402
10.000002965
10.0000028849
10.0000028299
10.0000027589
10.0000027242
10.0000026562
10.0000026425
10.0000025693
10.0000025775
10.0000024865
10.0000025138
10.0000023862
10.0000024243
10.0000022428
10.0000000144
10.0000001834
10.0000003471
10.0000004958
10.0000006385
10.0000007748
10.0000009021
10.0000010186
10.0000011218
10.0000012112
10.0000012859
10.0000013477
10.0000013963
10.0000014348
10.000001462
10.0000014827
10.0000014934
10.0000015013
10.0000014998
10.0000015009
10.0000014926
10.0000014946
10.0000014856
10.0000014986
10.000001495
10.0000015307
10.0000015366
10.0000016087
10.0000016223
10.00000175
10.0000017559
10.0000019763
10.0000019229
10.0000023346
10.000002054
10.0000029668
10.0000019036
10.0000043483
10.0000006576
10.0000079514
9.99999582322
10.0000179551
9.99998075517
10.0000445284
9.99994090729
10.0001070083
9.99985333014
10.0002284365
9.9997019166
10.0004079219
9.99951593105
10.0005784348
9.99940445835
10.0005911068
9.99953549084
10.0003336661
9.99979699017
10.0002377308
10.0000651827
9.99907379487
9.99601578327
9.99039407066
9.98286305519
9.9750474179