/*--------------------------------*- C++ -*----------------------------------*\
  =========                 |
  \\      /  F ield         | OpenFOAM: The Open Source CFD Toolbox
   \\    /   O peration     | Website:  https://openfoam.org
    \\  /    A nd           | Version:  7
     \\/     M anipulation  |
\*---------------------------------------------------------------------------*/
FoamFile
{
    version     2.0;
    format      ascii;
    class       volScalarField;
    location    "1620";
    object      p;
}
// * * * * * * * * * * * * * * * * * * * * * * * * * * * * * * * * * * * * * //

dimensions      [0 2 -2 0 0 0 0];

internalField   nonuniform List<scalar> 
8192
(
0.000621908311981
0.000450366234107
0.00036477012958
0.000320684190738
0.000295689727183
0.000280482713012
0.000270643131687
0.000263925346007
0.000259122003623
0.000255548987251
0.00025279905478
0.000250618509231
0.000248842728264
0.000247361005922
0.000246096572524
0.000244994782457
0.00024401586571
0.000243130324014
0.000242315912692
0.000241555604714
0.000240836180791
0.000240147229735
0.000239480423442
0.000238828980032
0.000238187257285
0.00023755043804
0.000236914280014
0.000236274911027
0.000235628655477
0.00023497188263
0.000234300867118
0.000233611655619
0.00023289993373
0.000232160889289
0.000231389067745
0.000230578217457
0.000229721122207
0.000228809421069
0.000227833415847
0.000226781870354
0.000225641807231
0.000224398313905
0.000223034372575
0.000221530736887
0.000219865882354
0.000218016065345
0.000215955527348
0.00021365688351
0.000211091726822
0.000208231468576
0.000205048412836
0.000201517037857
0.000197615425845
0.000193326758629
0.000188640777435
0.00018355510185
0.000178076306232
0.000172220665801
0.000166014495
0.000159494014084
0.0001527046877
0.000145699997778
0.000138539645693
0.000131287252356
0.000124007733068
0.000116764647315
0.000109617882186
0.000102621954358
9.58250477459e-05
8.92687072361e-05
8.29879582791e-05
7.70115942403e-05
7.13624351503e-05
6.60574690134e-05
6.11078819202e-05
5.65190497557e-05
5.22905875942e-05
4.84165475943e-05
4.48858231767e-05
4.16827760574e-05
3.8788056292e-05
3.61795523539e-05
3.3833387602e-05
3.17248808321e-05
2.98294013541e-05
2.81230740129e-05
2.65833129915e-05
2.51891865848e-05
2.39216291094e-05
2.27635264661e-05
2.16997034995e-05
2.07168416498e-05
1.98033505592e-05
1.89492139863e-05
1.81458244591e-05
1.73858179757e-05
1.66629154077e-05
1.59717754831e-05
1.53078611831e-05
1.46673208045e-05
1.40468831226e-05
1.34437662211e-05
1.28555985166e-05
1.22803509505e-05
1.17162787334e-05
1.11618715402e-05
1.06158107348e-05
1.00769326561e-05
9.54419686001e-06
9.01665856088e-06
8.49344454027e-06
7.97373205259e-06
7.45673048145e-06
6.94166577462e-06
6.42776825452e-06
5.9142649617e-06
5.40037904852e-06
4.88534039247e-06
4.36841517934e-06
3.84896765564e-06
3.32657826652e-06
2.80126220217e-06
2.27387306109e-06
1.74685989742e-06
1.22573624176e-06
7.22090290766e-07
2.6098415108e-07
-3.26507455359e-08
0.000472986862336
0.000409480796095
0.000359809080664
0.000327180635222
0.000305283639447
0.000290125388487
0.000279325881899
0.000271419601999
0.000265481060056
0.000260911855977
0.00025731602613
0.000254425537113
0.000252054927089
0.000250073176188
0.000248385921342
0.000246923984903
0.000245635824478
0.000244482463157
0.000243434017851
0.000242467276856
0.000241563978459
0.00024070956641
0.000239892274598
0.000239102442694
0.000238331995371
0.000237574038956
0.000236822542507
0.000236072079311
0.000235317611974
0.000234554309256
0.000233777383323
0.000232981940204
0.000232162837081
0.000231314542068
0.000230430992248
0.000229505447718
0.000228530339432
0.000227497110981
0.000226396054968
0.000225216147847
0.000223944888646
0.000222568151511
0.000221070064899
0.000219432936052
0.00021763724296
0.000215661721566
0.000213483577397
0.000211078851884
0.000208422967461
0.000205491466187
0.000202260938295
0.000198710116262
0.000194821084566
0.000190580535193
0.000185980983542
0.000181021856786
0.000175710370544
0.00017006212184
0.000164101336571
0.000157860721664
0.000151380880341
0.000144709263263
0.000137898652454
0.000131005229787
0.000124086368558
0.000117198392025
0.000110394602969
0.000103723820814
9.7229524778e-05
9.09495391038e-05
8.49160675952e-05
7.91558679908e-05
7.36904123174e-05
6.85359668468e-05
6.37036000055e-05
5.91991764106e-05
5.50234120894e-05
5.11720605168e-05
4.76362731694e-05
4.44031453038e-05
4.14564211117e-05
3.87773056996e-05
3.63453153591e-05
3.41390986974e-05
3.21371720466e-05
3.03185324848e-05
2.86631308952e-05
2.71522058943e-05
2.57684909285e-05
2.44963149889e-05
2.33216191643e-05
2.22319115962e-05
2.12161800551e-05
2.02647787565e-05
1.93693016855e-05
1.85224521107e-05
1.77179144552e-05
1.69502330655e-05
1.62147000805e-05
1.55072538887e-05
1.48243882529e-05
1.41630720642e-05
1.35206788835e-05
1.28949256091e-05
1.22838191738e-05
1.16856104585e-05
1.10987543926e-05
1.05218754986e-05
9.95373806576e-06
9.39322039132e-06
8.83929257978e-06
8.29099762454e-06
7.74743570864e-06
7.20775195123e-06
6.67112831847e-06
6.13678096638e-06
5.60396536461e-06
5.07199286793e-06
4.54026488186e-06
4.0083341979e-06
3.4760091635e-06
2.94352566329e-06
2.41182814331e-06
1.8830284436e-06
1.36116077185e-06
8.5347695742e-07
3.72165238915e-07
1.62948370534e-08
0.000390018997999
0.000367362338331
0.000341387921122
0.00032017219247
0.000304074444616
0.000291784003515
0.000282280525746
0.000274835932883
0.000268928022255
0.000264177565799
0.000260306329393
0.000257108377964
0.000254429999922
0.000252155474191
0.000250196905145
0.000248486923806
0.000246973417895
0.000245615702424
0.000244381715879
0.000243245950179
0.000242187907952
0.000241190941699
0.000240241370801
0.000239327802632
0.000238440603858
0.00023757148346
0.000236713158743
0.000235859081854
0.000235003212055
0.000234139822787
0.000233263331681
0.000232368147147
0.000231448525205
0.000230498432601
0.000229511411985
0.00022848044726
0.00022739782682
0.000226255004992
0.000225042461907
0.000223749565295
0.00022236443837
0.000220873842297
0.000219263083457
0.000217515961177
0.000215614773989
0.000213540407929
0.000211272531313
0.000208789922425
0.000206070951215
0.000203094229109
0.000199839424532
0.000196288223746
0.000192425392553
0.000188239876355
0.000183725861367
0.000178883719136
0.000173720761172
0.000168251744093
0.000162499075167
0.000156492679395
0.000150269493884
0.000143872563411
0.000137349721739
0.000130751884142
0.00012413105664
0.000117538286019
0.000111021860704
0.000104626000206
9.83901263914e-05
9.23486441087e-05
8.65310216464e-05
8.09619636162e-05
7.56615384197e-05
7.06452137206e-05
6.59238211926e-05
6.150351281e-05
5.7385780458e-05
5.35676028231e-05
5.00417577504e-05
4.67973079159e-05
4.38202334182e-05
4.10941610986e-05
3.86011262572e-05
3.63223053869e-05
3.42386695477e-05
3.23315274831e-05
3.05829446663e-05
2.89760409455e-05
2.74951785491e-05
2.61260589776e-05
2.48557478749e-05
2.36726471953e-05
2.2566430584e-05
2.15279559285e-05
2.05491651039e-05
1.96229791069e-05
1.87431936569e-05
1.79043792837e-05
1.71017878069e-05
1.63312667292e-05
1.55891817335e-05
1.48723475108e-05
1.41779663378e-05
1.35035740553e-05
1.28469926303e-05
1.22062887603e-05
1.15797377425e-05
1.09657920685e-05
1.03630541395e-05
9.77025267271e-06
9.18622244998e-06
8.60988718122e-06
8.04024549728e-06
7.47636019803e-06
6.91735134142e-06
6.36239396446e-06
5.8107220325e-06
5.26164071732e-06
4.71455052551e-06
4.16898801697e-06
3.62469049315e-06
3.08169497085e-06
2.54048732465e-06
2.00222455333e-06
1.46906184611e-06
9.44549195816e-07
4.33353908383e-07
2.97954873045e-08
0.000345441402898
0.000337067594861
0.000322892342989
0.000309117870504
0.000297706414216
0.000288446385102
0.000280884686512
0.000274652938423
0.000269472973138
0.00026513223359
0.000261464968916
0.000258340109554
0.000255653183829
0.000253320539028
0.000251274975382
0.000249462344547
0.000247838863961
0.000246368987424
0.000245023715256
0.000243779253183
0.000242615946961
0.000241517434447
0.000240469968285
0.000239461872345
0.000238483102499
0.000237524888826
0.000236579441706
0.000235639704412
0.000234699144249
0.000233751573902
0.000232790992553
0.000231811442259
0.000230806874655
0.000229771024395
0.000228697286033
0.000227578592344
0.000226407292358
0.000225175028851
0.000223872615565
0.000222489916468
0.000221015730533
0.000219437688496
0.00021774217027
0.000215914255832
0.000213937725609
0.000211795131016
0.000209467958336
0.000206936911249
0.000204182334535
0.000201184794989
0.000197925821364
0.000194388786254
0.000190559889214
0.000186429179984
0.000181991546782
0.000177247594052
0.000172204342669
0.000166875700376
0.000161282661677
0.000155453204954
0.00014942185725
0.000143228895982
0.000136919153173
0.000130540411421
0.00012414146555
0.000117770078274
0.000111471200443
0.000105285735004
9.92499451315e-05
9.33954024799e-05
8.77492048334e-05
8.23342221871e-05
7.71692348712e-05
7.22689361307e-05
6.76438427194e-05
6.33001908036e-05
5.92398982295e-05
5.54606605247e-05
5.1956220417e-05
4.87168170282e-05
4.57297856182e-05
4.29802530026e-05
4.045186133e-05
3.81274572648e-05
3.59896982022e-05
3.40215477359e-05
3.22066510996e-05
3.05295963768e-05
2.8976075769e-05
2.75329657497e-05
2.61883449257e-05
2.49314671602e-05
2.37527043397e-05
2.26434705622e-05
2.15961363275e-05
2.06039392512e-05
1.96608955306e-05
1.87617151948e-05
1.79017227445e-05
1.70767842423e-05
1.62832410897e-05
1.55178505709e-05
1.47777327851e-05
1.40603236312e-05
1.33633332612e-05
1.26847095425e-05
1.20226059509e-05
1.13753534521e-05
1.07414358995e-05
1.01194686005e-05
9.50817974004e-06
8.90639446441e-06
8.31302152979e-06
7.72704254179e-06
7.14750400325e-06
6.57351254892e-06
6.0042340817e-06
5.43889781319e-06
4.87680682493e-06
4.3173574308e-06
3.76007094823e-06
3.20464326574e-06
2.65102039888e-06
2.09950934364e-06
1.55091603925e-06
1.00656877939e-06
4.67448552419e-07
3.20728340134e-08
0.000317798133569
0.000315846691521
0.000308064195437
0.000298886763473
0.000290619139404
0.000283598486248
0.000277667722153
0.000272621498449
0.000268291481517
0.00026454801406
0.000261289850284
0.000258435758309
0.000255919121605
0.000253684559527
0.000251685692428
0.000249883534043
0.000248245244297
0.000246743112446
0.000245353706326
0.000244057153364
0.000242836531431
0.000241677353222
0.000240567130227
0.000239495004198
0.000238451435157
0.000237427936452
0.000236416849358
0.000235411145607
0.00023440425674
0.000233389925551
0.00023236207058
0.000231314661974
0.000230241605163
0.0002291366297
0.000227993180743
0.000226804311533
0.000225562575352
0.000224259916535
0.00022288756049
0.000221435904224
0.00021989440993
0.000218251506597
0.0002164945068
0.00021460954961
0.000212581584107
0.000210394412933
0.000208030819077
0.000205472802488
0.000202701952328
0.000199699975521
0.000196449388783
0.000192934361133
0.000189141667659
0.0001850616913
0.000180689393765
0.000176025177308
0.000171075572131
0.000165853703164
0.000160379502972
0.000154679644721
0.00014878716976
0.000142740775297
0.000136583703245
0.000130362169446
0.000124123362313
0.000117913257628
0.000111774732401
0.000105746344706
9.98618964769e-05
9.41506157767e-05
8.86375794994e-05
8.33440767164e-05
7.82877739253e-05
7.34826817519e-05
6.89389977316e-05
6.46629258428e-05
6.06565689363e-05
5.69179702341e-05
5.34413481822e-05
5.02175302174e-05
4.72345507414e-05
4.44783491655e-05
4.19334917371e-05
3.95838483274e-05
3.74131748012e-05
3.54055758715e-05
3.35458440631e-05
3.18196854165e-05
3.02138501295e-05
2.87161890944e-05
2.73156559633e-05
2.60022718074e-05
2.47670657629e-05
2.36020019919e-05
2.24999002278e-05
2.14543550991e-05
2.04596574999e-05
1.95107201678e-05
1.86030085621e-05
1.77324776441e-05
1.68955146171e-05
1.60888875175e-05
1.53096992914e-05
1.45553469773e-05
1.38234855112e-05
1.31119957129e-05
1.24189559927e-05
1.17426173674e-05
1.10813814089e-05
1.04337807868e-05
9.7984621343e-06
9.174170995e-06
8.55973870715e-06
7.95407110419e-06
7.35613905587e-06
6.76497091536e-06
6.17964717373e-06
5.59929776723e-06
5.02310294622e-06
4.45029909207e-06
3.88019185246e-06
3.31217987651e-06
2.74579251602e-06
2.18073782562e-06
1.61692034984e-06
1.05424261895e-06
4.91619750248e-07
3.25783772675e-08
0.000299428991835
0.000300345090378
0.000296320988901
0.000290201709387
0.000284119635044
0.000278696763051
0.000273983670809
0.000269885453661
0.000266295497221
0.000263125296668
0.000260305469232
0.000257781193886
0.00025550800958
0.000253448913796
0.00025157251085
0.000249851828578
0.000248263523223
0.000246787302948
0.000245405476475
0.000244102578275
0.000242865045701
0.00024168093565
0.000240539673879
0.000239431832694
0.000238348933592
0.000237283272182
0.000236227762519
0.000235175794498
0.000234121106633
0.00023305767275
0.000231979594787
0.00023088100224
0.00022975595599
0.000228598354726
0.000227401842175
0.000226159713798
0.000224864821713
0.000223509477173
0.000222085350327
0.000220583367979
0.000218993611062
0.000217305215459
0.000215506282015
0.000213583805103
0.000211523633172
0.00020931048011
0.000206928011594
0.000204359035627
0.000201585828099
0.000198590620645
0.000195356265148
0.000191867066774
0.000188109746574
0.000184074464618
0.000179755815507
0.00017515371011
0.000170274077427
0.000165129346188
0.000159738681124
0.000154127954132
0.000148329431211
0.000142381141512
0.000136325841821
0.000130209441883
0.000124078843858
0.000117979466437
0.000111953116996
0.000106036735005
0.000100262152236
9.46565985881e-05
8.92434034095e-05
8.40425088561e-05
7.90706619099e-05
7.43413279534e-05
6.98644438377e-05
6.56461415295e-05
6.16885576513e-05
5.79898168618e-05
5.45442400942e-05
5.1342782816e-05
4.83736600748e-05
4.56230796301e-05
4.30759922734e-05
4.07167807055e-05
3.85298349399e-05
3.64999921775e-05
3.46128430428e-05
3.2854921342e-05
3.12138008954e-05
2.96781236804e-05
2.82375804792e-05
2.68828611639e-05
2.56055873324e-05
2.43982364392e-05
2.32540634886e-05
2.21670242904e-05
2.11317025869e-05
2.01432423983e-05
1.91972861039e-05
1.82899184159e-05
1.74176160257e-05
1.65772026201e-05
1.57658088046e-05
1.4980836506e-05
1.42199273611e-05
1.34809346708e-05
1.27618984821e-05
1.20610234306e-05
1.13766589819e-05
1.07072817733e-05
1.00514797707e-05
9.40793800848e-06
8.77542570934e-06
8.15278462559e-06
7.5389185029e-06
6.93278363368e-06
6.33338059835e-06
5.73974744896e-06
5.15095487923e-06
4.56610423877e-06
3.98432956135e-06
3.40480430393e-06
2.82675014464e-06
2.2494317724e-06
1.67207854107e-06
1.0935615187e-06
5.11479661769e-07
3.34855282748e-08
0.000286532532679
0.000288681092476
0.000286903453488
0.000282900860192
0.000278424741449
0.000274192575622
0.000270394121585
0.000267024066973
0.000264025272966
0.000261337485205
0.000258909816247
0.000256701560989
0.000254680149916
0.000252818982647
0.000251095783626
0.000249491481243
0.000247989468845
0.000246575112811
0.000245235411186
0.000243958741643
0.000242734662437
0.000241553745777
0.000240407432332
0.000239287900764
0.000238187948892
0.000237100885405
0.000236020428454
0.000234940609423
0.000233855683961
0.000232760050636
0.000231648170611
0.000230514489887
0.000229353362801
0.000228158975531
0.000226925268391
0.00022564585576
0.000224313942558
0.000222922236395
0.000221462854822
0.000219927227677
0.000218305995421
0.000216588905818
0.000214764713536
0.000212821090527
0.000210744559661
0.000208520470117
0.000206133040141
0.000203565499956
0.000200800372248
0.000197819926296
0.000194606829677
0.000191144995847
0.000187420588284
0.000183423102474
0.00017914642197
0.00017458974854
0.000169758337338
0.00016466400461
0.000159325393321
0.000153767983209
0.000148023835708
0.000142131052302
0.000136132833828
0.000130075896209
0.000124008060178
0.000117975302376
0.00011201921111
0.000106175639578
0.000100474746424
9.49419590399e-05
8.95990452644e-05
8.44648025803e-05
7.95552604674e-05
7.48835092825e-05
7.0459331984e-05
6.62888066007e-05
6.2374016303e-05
5.87129687732e-05
5.52997848984e-05
5.21251618865e-05
4.91770553744e-05
4.64414805594e-05
4.39033202078e-05
4.15470470121e-05
3.93573047519e-05
3.73193305997e-05
3.54192290102e-05
3.36441229916e-05
3.19822132367e-05
3.04227735322e-05
2.89561056868e-05
2.75734713381e-05
2.62670127538e-05
2.50296705596e-05
2.38551032906e-05
2.27376115358e-05
2.16720680732e-05
2.06538544915e-05
1.96788042875e-05
1.87431521041e-05
1.78434886414e-05
1.69767206895e-05
1.61400357403e-05
1.5330870637e-05
1.45468837746e-05
1.37859303893e-05
1.3046040535e-05
1.23253993694e-05
1.1622329429e-05
1.09352745889e-05
1.02627854492e-05
9.60350590657e-06
8.95616070774e-06
8.31954380271e-06
7.69250736595e-06
7.07395139411e-06
6.4628138759e-06
5.85806160994e-06
5.25868184565e-06
4.66367488161e-06
4.07204728302e-06
3.4828034813e-06
2.89492773897e-06
2.30733270501e-06
1.71871303937e-06
1.12717286498e-06
5.29447864252e-07
3.58702286635e-08
0.000277065694836
0.00027968258629
0.000279256001296
0.00027673714496
0.000273477155274
0.000270171903285
0.0002670874202
0.000264286439064
0.000261754948879
0.000259457615671
0.000257358233155
0.000255425651454
0.000253634422669
0.000251963882151
0.000250397011059
0.000248919485554
0.000247518977086
0.000246184663647
0.000244906893193
0.000243676949003
0.000242486880428
0.000241329374652
0.000240197653891
0.000239085388509
0.000237986620214
0.00023689569384
0.000235807190011
0.000234715861045
0.000233616570362
0.000232504235328
0.000231373768508
0.000230220018834
0.000229037711736
0.00022782138736
0.000226565335838
0.000225263528588
0.000223909544509
0.000222496490018
0.000221016911916
0.000219462702448
0.000217824996467
0.000216094061886
0.00021425918647
0.000212308567376
0.000210229214632
0.0002080068868
0.000205626085923
0.000203070148914
0.000200321480867
0.000197361977889
0.000194173676129
0.000190739634607
0.000187045012114
0.000183078245577
0.000178832202043
0.00017430518267
0.000169501704613
0.00016443304134
0.000159117521467
0.00015358057681
0.000147854541955
0.000141978218553
0.000135996082002
0.000129956724618
0.000123910107233
0.000117903889769
0.000111980219006
0.000106174229558
0.000100514512697
9.50247407509e-05
8.97252259429e-05
8.46337992392e-05
7.97659856546e-05
7.51347006689e-05
7.07497189152e-05
6.66171243981e-05
6.27389006523e-05
5.9112777472e-05
5.57324064019e-05
5.25878713481e-05
4.96664618735e-05
4.69535790321e-05
4.44336316603e-05
4.20908123172e-05
3.99096936236e-05
3.78756345168e-05
3.59750186191e-05
3.41953620002e-05
3.25253293088e-05
3.09546917841e-05
2.94742525266e-05
2.80757566486e-05
2.67517975355e-05
2.54957258786e-05
2.43015649813e-05
2.31639339063e-05
2.20779788153e-05
2.10393122354e-05
2.00439596206e-05
1.90883124757e-05
1.81690872558e-05
1.72832893143e-05
1.64281812106e-05
1.5601254781e-05
1.48002064285e-05
1.40229151698e-05
1.32674230213e-05
1.2531917372e-05
1.1814715018e-05
1.11142475855e-05
1.04290480823e-05
9.75773836019e-06
9.09901727665e-06
8.4516493801e-06
7.81445395274e-06
7.18629427475e-06
6.56606697977e-06
5.95269135255e-06
5.3450982868e-06
4.74221820235e-06
4.14296607422e-06
3.54621884836e-06
2.95077373727e-06
2.35526107112e-06
1.75795746701e-06
1.15640963606e-06
5.46791049349e-07
4.03500545682e-08
0.000269863603496
0.000272593788487
0.00027297877302
0.000271503944203
0.000269175651402
0.000266611082378
0.0002641040329
0.00026176253332
0.000259607814395
0.00025762718657
0.000255798115072
0.000254097794796
0.000252506247687
0.000251006813005
0.000249585740369
0.000248231581632
0.000246934631934
0.000245686486531
0.000244479711423
0.000243307605268
0.000242164028113
0.000241043276513
0.000239939989816
0.000238849076825
0.000237765655457
0.000236685003548
0.000235602508888
0.000234513623046
0.00023341381922
0.000232298550574
0.000231163206617
0.000230003068119
0.000228813259794
0.000227588699837
0.000226324045398
0.000225013632825
0.000223651411523
0.000222230869984
0.000220744952605
0.000219185965869
0.000217545472877
0.000215814175956
0.000213981788888
0.000212036903237
0.000209966858487
0.000207757633471
0.000205393787632
0.000202858494007
0.000200133719177
0.000197200612364
0.000194040157841
0.000190634111834
0.000186966185229
0.00018302336034
0.000178797178464
0.000174284843138
0.000169490057775
0.000164423600949
0.00015910366247
0.000153555927344
0.000147813418036
0.000141916182815
0.000135910746464
0.000129848688156
0.000123783475754
0.000117765716679
0.00011183889034
0.000106037620007
0.000100388826673
9.49143253472e-05
8.96330144991e-05
8.45619315172e-05
7.97163332657e-05
7.51091935651e-05
7.07504574537e-05
6.66463034298e-05
6.27985901844e-05
5.92046191928e-05
5.58573032231e-05
5.27457514541e-05
4.98561757067e-05
4.71729446113e-05
4.46796023464e-05
4.23597176736e-05
4.01975016107e-05
3.81781947568e-05
3.62882630385e-05
3.45154539438e-05
3.28487626393e-05
3.12783470878e-05
2.97954197155e-05
2.83921330689e-05
2.70614695213e-05
2.57971400235e-05
2.45934938726e-05
2.34454396624e-05
2.23483767293e-05
2.12981359699e-05
2.02909288453e-05
1.9323303387e-05
1.83921061677e-05
1.74944492949e-05
1.6627681648e-05
1.57893636691e-05
1.49772451482e-05
1.41892455072e-05
1.34234361799e-05
1.26780247277e-05
1.19513403912e-05
1.12418208076e-05
1.05479996549e-05
9.86849501153e-06
9.20199822569e-06
8.54726311011e-06
7.90309526377e-06
7.26834131726e-06
6.64187782175e-06
6.02259937669e-06
5.40940523459e-06
4.80118290856e-06
4.19678568874e-06
3.59499767057e-06
2.99447319529e-06
2.3936254132e-06
1.79042040698e-06
1.18201993011e-06
5.6424736814e-07
4.73282395491e-08
0.000264229792432
0.0002669121152
0.000267780267354
0.000267040388231
0.00026542785337
0.000263462204983
0.000261433060957
0.000259473600873
0.000257631169115
0.000255912471292
0.000254307723011
0.000252802137207
0.000251380809943
0.000250030460764
0.0002487397946
0.000247499328285
0.000246301059121
0.000245138130299
0.000244004546576
0.000242894950261
0.000241804451084
0.000240728498877
0.000239662788164
0.000238603185562
0.000237545672817
0.000236486303442
0.000235421160354
0.000234346316451
0.000233257803097
0.000232151576855
0.000231023485042
0.000229869229508
0.000228684327722
0.000227464070197
0.000226203473178
0.000224897225365
0.000223539627229
0.000222124521196
0.000220645210773
0.000219094366444
0.000217463916189
0.000215744918923
0.00021392742043
0.000212000294114
0.00020995107411
0.000207765796915
0.000205428880886
0.000202923090515
0.000200229651871
0.000197328600039
0.000194199436263
0.000190822136755
0.000187178478678
0.000183253546814
0.00017903720573
0.000174525330579
0.00016972070435
0.000164633625974
0.00015928229181
0.000153692915414
0.00014789958112
0.000141944059947
0.000135875660012
0.000129750169522
0.000123626230058
0.000117558962332
0.000111594019936
0.000105765534618
0.000100098400461
9.46123178972e-05
8.93247753024e-05
8.42522116858e-05
7.9409891784e-05
7.48111183273e-05
7.04662123505e-05
6.6381549826e-05
6.25588398391e-05
5.8994788486e-05
5.56812666057e-05
5.26060035989e-05
4.97536801397e-05
4.71071850414e-05
4.46487958343e-05
4.23611199259e-05
4.02277354457e-05
3.82335513883e-05
3.6364948756e-05
3.46097738133e-05
3.29572450159e-05
3.13978187616e-05
2.99230431569e-05
2.85254165159e-05
2.71982588049e-05
2.59355990113e-05
2.47320785201e-05
2.35828691631e-05
2.24836040666e-05
2.14303193476e-05
2.04194048517e-05
1.94475623643e-05
1.85117699664e-05
1.76092514433e-05
1.67374498406e-05
1.58940044399e-05
1.50767305429e-05
1.4283601578e-05
1.35127331085e-05
1.27623684084e-05
1.20308652999e-05
1.13166840117e-05
1.06183758172e-05
9.93457225942e-06
9.26397474775e-06
8.60534433542e-06
7.95749143079e-06
7.31926516467e-06
6.68954197689e-06
6.06721276538e-06
5.45116741572e-06
4.84027461037e-06
4.23335296962e-06
3.62912624184e-06
3.02614931182e-06
2.42268260129e-06
1.81648172065e-06
1.20446771718e-06
5.82275495322e-07
5.70688983012e-08
0.000259729258698
0.000262294706223
0.000263444104043
0.000263220971177
0.000262157779772
0.000260678104837
0.000259049249778
0.00025741396883
0.000255836847271
0.000254339964493
0.000252924813597
0.000251584214805
0.000250308231196
0.000249086838668
0.000247910959312
0.000246772724
0.00024566540494
0.000244583231478
0.000243521185952
0.000242474818792
0.000241440094988
0.000240413272003
0.00023939080471
0.000238369271738
0.000237345318451
0.000236315612942
0.000235276806583
0.000234225495909
0.00023315819565
0.000232071309319
0.000230961099538
0.000229823656749
0.000228654865285
0.000227450365651
0.000226205511808
0.00022491532203
0.000223574421652
0.000222176975621
0.000220716608362
0.000219186307969
0.000217578311403
0.000215883967308
0.000214093573835
0.000212196191076
0.000210179432757
0.000208029251026
0.00020572974356
0.000203263034499
0.000200609308226
0.000197747099866
0.000194653952355
0.000191307513438
0.000187687049355
0.000183775208066
0.000179559741483
0.000175034898315
0.000170202377168
0.000165071958472
0.000159661952025
0.000153999364916
0.000148119699577
0.000142066850134
0.000135893583496
0.000129661296062
0.000123435984973
0.000117279390674
0.00011124033448
0.000105352216666
9.96372111909e-05
9.41124881452e-05
8.87941339078e-05
8.36982416663e-05
7.88404149477e-05
7.4234592017e-05
6.98916884135e-05
6.58183735348e-05
6.20161564627e-05
5.84809322894e-05
5.52031547383e-05
5.21686833592e-05
4.93601339038e-05
4.67584073413e-05
4.43440784149e-05
4.20984463343e-05
4.00041943877e-05
3.8045707306e-05
3.62091397557e-05
3.44823309354e-05
3.28546407392e-05
3.13167584388e-05
2.98605138681e-05
2.84787060615e-05
2.71649549581e-05
2.5913576534e-05
2.47194792541e-05
2.35780787811e-05
2.24852278229e-05
2.14371582662e-05
2.04304332037e-05
1.94619068687e-05
1.85286909107e-05
1.76281257455e-05
1.67577559977e-05
1.59153092417e-05
1.50986774224e-05
1.43059004494e-05
1.35351515599e-05
1.27847241132e-05
1.20530195359e-05
1.13385361743e-05
1.06398588383e-05
9.95564883196e-06
9.28463426656e-06
8.62560043271e-06
7.97737995341e-06
7.33884234794e-06
6.70888244389e-06
6.08640675128e-06
5.47031630325e-06
4.8594834171e-06
4.2527179592e-06
3.64871558409e-06
3.04597550592e-06
2.44266884806e-06
1.83643304213e-06
1.22407140955e-06
6.01162940289e-07
6.97266928601e-08
0.000256078895227
0.000258501922008
0.000259807070128
0.000259946112192
0.000259303533655
0.000258217905956
0.000256925857816
0.000255568906853
0.00025422127675
0.000252916245561
0.000251664666575
0.000250466245967
0.000249315816362
0.000248206578454
0.00024713164179
0.000246084664496
0.000245060042047
0.000244052887102
0.000243058925326
0.000242074368517
0.000241095792793
0.000240120032562
0.000239144092602
0.00023816507686
0.000237180133056
0.000236186407056
0.000235181003612
0.000234160949541
0.000233123166918
0.000232064445309
0.000230981414055
0.000229870513319
0.000228727962661
0.000227549725912
0.000226331470945
0.000225068522762
0.000223755807923
0.000222387787867
0.000220958378045
0.000219460849024
0.000217887704955
0.000216230534185
0.000214479826827
0.000212624755618
0.000210652920801
0.000208550069239
0.000206299815252
0.000203883418229
0.000201279709461
0.000198465300233
0.000195415224253
0.000192104135401
0.000188508062042
0.00018460651584
0.000180384556058
0.000175834390512
0.0001709563678
0.000165759611419
0.000160262582245
0.000154493347878
0.000148489201737
0.000142296466021
0.000135971918253
0.000129584193395
0.000123209673727
0.000116919753208
0.000110767682251
0.000104785483524
9.89914452876e-05
9.33996456426e-05
8.80248532787e-05
8.28831632447e-05
7.79909066064e-05
7.33629814204e-05
6.90110957018e-05
6.49422624774e-05
6.11576760126e-05
5.7652114136e-05
5.44141182447e-05
5.14270535145e-05
4.86708135789e-05
4.6123711662e-05
4.37641305298e-05
4.15716958934e-05
3.9527940526e-05
3.76165531053e-05
3.58233481209e-05
3.41360811155e-05
3.25441997157e-05
3.10385862961e-05
2.96113214452e-05
2.82554800416e-05
2.69649618722e-05
2.57343539038e-05
2.45588194812e-05
2.34340094895e-05
2.23559909866e-05
2.13211895517e-05
2.03263423273e-05
1.93684593972e-05
1.84447916709e-05
1.75528038818e-05
1.66901516145e-05
1.58546615448e-05
1.50443142384e-05
1.42572290157e-05
1.34916504687e-05
1.27459363188e-05
1.20185463309e-05
1.13080320666e-05
1.06130272537e-05
9.9322385856e-06
9.2644367271e-06
8.60844729625e-06
7.96314149402e-06
7.32742595393e-06
6.7002311279e-06
6.08049717021e-06
5.46715559669e-06
4.85910393779e-06
4.2551688013e-06
3.65405004797e-06
3.05423489204e-06
2.45386637165e-06
1.85054814555e-06
1.24107266599e-06
6.21078072818e-07
8.53598029381e-08
0.000253087098288
0.000255362196796
0.000256744201528
0.000257135446313
0.000256813902159
0.000256046966372
0.000255038398956
0.000253921717078
0.000252774846352
0.000251638420387
0.000250530563377
0.000249456891571
0.000248416631743
0.000247406109636
0.000246420618124
0.000245455345771
0.000244505785888
0.000243567871907
0.000242637977605
0.000241712857539
0.000240789567039
0.000239865381097
0.00023893772063
0.000238004088745
0.000237062019867
0.000236109035605
0.000235142604285
0.000234160106728
0.000233158808551
0.000232135832899
0.000231088133423
0.000230012466216
0.000228905359455
0.000227763079392
0.000226581591228
0.000225356513047
0.000224083060623
0.000222755980238
0.000221369465841
0.000219917055796
0.00021839150323
0.000216784612709
0.000215087035122
0.00021328801306
0.000211375072374
0.00020933366458
0.000207146783569
0.000204794612914
0.000202254309436
0.000199500088265
0.000196503819968
0.00019323633214
0.000189669465171
0.000185778646336
0.000181545429586
0.0001769593712
0.000172019021892
0.000166732514501
0.00016111834659
0.000155205914004
0.000149034752511
0.000142653792226
0.000136124107579
0.000129523453929
0.000122943026091
0.000116468497684
0.000110159251869
0.000104044605286
9.81371106021e-05
9.24471062349e-05
8.69883212682e-05
8.1777317104e-05
7.68315656555e-05
7.21672095912e-05
6.77968530808e-05
6.37277853892e-05
5.99606462392e-05
5.64886417075e-05
5.3297724095e-05
5.03679453608e-05
4.76756491193e-05
4.51958403908e-05
4.29041564647e-05
4.07781665629e-05
3.87980107138e-05
3.69465400718e-05
3.52091522483e-05
3.35734805389e-05
3.20290425226e-05
3.0566906557e-05
2.91794021359e-05
2.7859880802e-05
2.66025246067e-05
2.54021951565e-05
2.42543155128e-05
2.31547778286e-05
2.20998707984e-05
2.10862221965e-05
2.01107528829e-05
1.91706395239e-05
1.82632839784e-05
1.73862878075e-05