/*--------------------------------*- C++ -*----------------------------------*\
  =========                 |
  \\      /  F ield         | OpenFOAM: The Open Source CFD Toolbox
   \\    /   O peration     | Website:  https://openfoam.org
    \\  /    A nd           | Version:  7
     \\/     M anipulation  |
\*---------------------------------------------------------------------------*/
FoamFile
{
    version     2.0;
    format      ascii;
    class       surfaceScalarField;
    location    "1620";
    object      phi;
}
// * * * * * * * * * * * * * * * * * * * * * * * * * * * * * * * * * * * * * //

dimensions      [0 3 -1 0 0 0 0];

internalField   nonuniform List<scalar> 
16192
(
6.92912061604e-10
2.44587938396e-10
4.93541117008e-10
1.99370945849e-10
3.64798926795e-10
1.28742190799e-10
2.82217705215e-10
8.25812215007e-11
2.27600182167e-10
5.46175224776e-11
1.90001231699e-10
3.75989497776e-11
1.63076659232e-10
2.69245718392e-11
1.43112446904e-10
1.99642118563e-11
1.27873250262e-10
1.52391963371e-11
1.15965871886e-10
1.19073782871e-11
1.06489391161e-10
9.47648084149e-12
9.88400155376e-11
7.64937600089e-12
9.25995293613e-11
6.24048680005e-12
8.74696316824e-11
5.12989860915e-12
8.3232060552e-11
4.23757234055e-12
7.97236102886e-11
3.50845181689e-12
7.68200025785e-11
2.90360956685e-12
7.44251777811e-11
2.39482702188e-12
7.24639987353e-11
1.96118158293e-12
7.08771626618e-11
1.58683898784e-12
6.96175770563e-11
1.25958882605e-12
6.8647730426e-11
9.69850221716e-13
6.79377524155e-11
7.09981885513e-13
6.74639627357e-11
4.73793903704e-13
6.72077714399e-11
2.56195765645e-13
6.71548376658e-11
5.2938556505e-14
6.72944194833e-11
-1.39576840106e-13
6.76188677375e-11
-3.24443012277e-13
6.81232278786e-11
-5.0435476446e-13
6.88049262736e-11
-6.81692808931e-13
6.96635185641e-11
-8.58586633543e-13
7.07004846337e-11
-1.0369602579e-12
7.19190542314e-11
-1.21856377407e-12
7.33240517598e-11
-1.40499159596e-12
7.49217456729e-11
-1.59768801345e-12
7.67196908254e-11
-1.79793917026e-12
7.87265473816e-11
-2.00685062617e-12
8.09518618194e-11
-2.22530842166e-12
8.34057897992e-11
-2.45392199976e-12
8.60987424969e-11
-2.69294658874e-12
8.90409325906e-11
-2.94218396141e-12
9.22417998923e-11
-3.20086095267e-12
9.57092946075e-11
-3.46748823744e-12
9.94490060284e-11
-3.73970459422e-12
1.0346313081e-10
-4.0141176794e-12
1.07749295994e-10
-4.28615756668e-12
1.12299270775e-10
-4.54996671766e-12
1.17097634174e-10
-4.79835464295e-12
1.22120492318e-10
-5.02284878085e-12
1.27334371505e-10
-5.21386899192e-12
1.3269542591e-10
-5.36104351047e-12
1.38149103225e-10
-5.45366556033e-12
1.43630384654e-10
-5.48126904489e-12
1.49064678384e-10
-5.43428066917e-12
1.54369386714e-10
-5.30469497135e-12
1.59456117825e-10
-5.08671755963e-12
1.64233463445e-10
-4.77733242401e-12
1.68610236305e-10
-4.37676026765e-12
1.72499030306e-10
-3.88878267841e-12
1.75819942309e-10
-3.32090225155e-12
1.78504244553e-10
-2.68429472376e-12
1.80497734943e-10
-1.99348530926e-12
1.81763407204e-10
-1.2656701269e-12
1.82283043069e-10
-5.19636681132e-13
1.82057390689e-10
2.256483269e-13
1.81104837528e-10
9.52546091141e-13
1.79458850647e-10
1.64597671839e-12
1.77164750749e-10
2.29408705589e-12
1.7427648158e-10
2.88825375478e-12
1.70853900304e-10
3.42256385016e-12
1.66960803454e-10
3.89307764204e-12
1.62663613562e-10
4.29716951494e-12
1.58030470553e-10
4.63312170356e-12
1.53130440847e-10
4.90000803162e-12
1.48032616026e-10
5.09780294934e-12
1.42804989544e-10
5.22760486263e-12
1.37513111465e-10
5.29185678178e-12
1.32218620293e-10
5.29447052357e-12
1.26977803502e-10
5.24079675398e-12
1.21840357026e-10
5.13742725249e-12
1.16848483147e-10
4.99185533354e-12
1.12036414898e-10
4.81205048108e-12
1.07430383406e-10
4.60601429834e-12
1.03048986857e-10
4.38137996425e-12
9.89038724847e-11
4.1450981684e-12
9.50006266336e-11
3.90323004125e-12
9.13397652486e-11
3.66084575383e-12
8.7917736321e-11
3.42201349636e-12
8.47278653967e-11
3.18985551327e-12
8.17612026077e-11
2.96664744298e-12
7.90072477206e-11
2.75393947026e-12
7.64545490351e-11
2.55268326847e-12
7.40911802702e-11
2.36335325411e-12
7.19051089714e-11
2.1860557853e-12
6.98844705038e-11
2.02062289368e-12
6.80177648691e-11
1.86669010267e-12
6.62939904247e-11
1.72375892442e-12
6.47027291082e-11
1.59124591331e-12
6.32341937416e-11
1.46852006985e-12
6.18792478363e-11
1.35493081472e-12
6.06294047052e-11
1.24982824912e-12
5.94768126034e-11
1.15257751718e-12
5.84142297867e-11
1.06256854001e-12
5.74349934842e-11
9.79222407746e-13
5.65329847136e-11
9.01995273064e-13
5.5702591066e-11
8.3038060462e-13
5.49386681395e-11
7.63910356243e-13
5.42365004462e-11
7.02155635509e-13
5.35917616276e-11
6.44727293635e-13
5.30004737568e-11
5.91276901146e-13
5.24589648102e-11
5.41498554297e-13
5.19638229695e-11
4.9513203197e-13
5.15118457931e-11
4.51967974582e-13
5.10999812602e-11
4.11855928742e-13
5.07252567478e-11
3.74716530024e-13
5.03846898022e-11
3.40559561706e-13
5.00751723767e-11
3.09510663895e-13
4.97933153746e-11
2.81850826721e-13
4.95352343006e-11
2.58075509575e-13
4.92962448961e-11
2.38984406852e-13
4.90704198642e-11
2.25820632318e-13
4.88499254258e-11
2.20490595206e-13
4.86240066493e-11
2.25915537142e-13
4.83774192607e-11
2.46584718205e-13
4.80880692834e-11
2.89347919552e-13
4.77240121853e-11
3.6405557369e-13
4.72425219792e-11
4.81489136556e-13
6.17799343281e-13
9.53397313024e-10
2.28690627472e-10
8.59620233444e-10
2.93148026197e-10
7.45068491865e-10
2.4329393196e-10
6.41891010308e-10
1.85758701559e-10
5.56715755718e-10
1.3979277509e-10
4.88339681809e-10
1.05975021726e-10
4.33739455854e-10
8.15247960663e-11
3.89960955391e-10
6.37427109239e-11
3.54589387588e-10
5.0610763116e-11
3.25767172935e-10
4.0729592347e-11
3.02094104273e-10
3.31495493683e-11
2.82517562608e-10
2.72259180507e-11
2.66241783017e-10
2.25162673136e-11
2.52659522364e-10
1.87121607823e-11
2.41302416543e-10
1.55946802846e-11
2.31805343102e-10
1.3005528034e-11
2.23880839908e-10
1.08281161797e-11
2.1730063068e-10
8.97504035179e-12
2.11882158142e-10
7.37965887648e-12
2.07478661405e-10
5.99034116132e-12
2.03971781211e-10
4.76647508902e-12
2.01265987592e-10
3.67565055832e-12
1.99284335051e-10
2.69164172299e-12
1.97965197118e-10
1.79293972067e-12
1.97259730293e-10
9.61670971086e-13
1.97129888211e-10
1.82789515701e-13
1.97546853002e-10
-5.56532362183e-13
1.98489785115e-10
-1.26736546817e-12
1.9994481672e-10
-1.95937644312e-12
2.0190423282e-10
-2.64109871409e-12
2.04365791058e-10
-3.32013452959e-12
2.07332141674e-10
-4.00330037581e-12
2.10810311361e-10
-4.69672292442e-12
2.14811219785e-10
-5.40588941613e-12
2.19349195341e-10
-6.13565299857e-12
2.24441458546e-10
-6.89019178162e-12
2.30107536506e-10
-7.67291804006e-12
2.36368572004e-10
-8.48633332755e-12
2.43246484879e-10
-9.33182427091e-12
2.50762944166e-10
-1.02093951165e-11
2.58938106064e-10
-1.11173349356e-11
2.67789079141e-10
-1.20518227484e-11
2.77328083619e-10
-1.30064810242e-11
2.87560291361e-10
-1.39718999952e-11
2.98481356354e-10
-1.4935169599e-11
3.1007468705e-10
-1.58794741893e-11
3.22308558019e-10
-1.67838225254e-11
3.35133220091e-10
-1.76230002117e-11
3.48478224382e-10
-1.83678351853e-11
3.62250230003e-10
-1.89858551705e-11
3.76331589576e-10
-1.9442382172e-11
3.90580003025e-10
-1.97020566304e-11
4.04829476535e-10
-1.97307190213e-11
4.18892738671e-10
-1.94975183852e-11
4.32565148902e-10
-1.89770805091e-11
4.45630021678e-10
-1.81515659403e-11
4.57865183778e-10
-1.70124713202e-11
4.69050505401e-10
-1.55620606656e-11
4.78976072876e-10
-1.38143319271e-11
4.8745060426e-10
-1.17954191904e-11
4.94309617191e-10
-9.54329787126e-12
4.99422751037e-10
-7.10661454636e-12
5.02699526682e-10
-4.54244685438e-12
5.04092791741e-10
-1.91290860908e-12
5.03599256709e-10
7.19170614797e-13
5.01256982884e-10
3.29480161018e-12
4.97140339819e-10
5.76259621046e-12
4.9135348773e-10
8.0809109656e-12
4.84023621212e-10
1.02180880819e-11
4.75294968172e-10
1.2151181566e-11
4.65324002717e-10
1.38640053616e-11
4.54275810426e-10
1.53453225508e-11
4.42321212888e-10
1.65876791053e-11
4.2963417317e-10
1.75870074668e-11
4.16389091595e-10
1.83428445357e-11
4.02757790976e-10
1.8858866303e-11
3.8890619218e-10
1.91434174327e-11
3.74990857975e-10
1.92097679057e-11
3.6115568893e-10
1.9075930315e-11
3.47529089486e-10
1.87639926385e-11
3.34221873603e-10
1.82990384289e-11
3.2132608088e-10
1.77078116275e-11
3.08914743747e-10
1.70173208116e-11
2.97042529954e-10
1.62535639692e-11
2.85747093707e-10
1.54405051853e-11
2.7505092623e-10
1.45993687234e-11
2.64963488099e-10
1.37482552899e-11
2.55483432586e-10
1.29020405396e-11
2.46600767326e-10
1.20724922597e-11
2.38298850045e-10
1.12685361534e-11
2.3055615429e-10
1.04966065022e-11
2.23347778571e-10
9.76103015619e-12
2.16646695977e-10
9.06440687429e-12
2.10424760714e-10
8.4079620226e-12
2.04653495903e-10
7.79185863967e-12
1.99304693436e-10
7.21546358225e-12
1.94350855519e-10
6.67756797489e-12
1.897655076e-10
6.17656521348e-12
1.85523407777e-10
5.71059158262e-12
1.81600675708e-10
5.27763500796e-12
1.77974859061e-10
4.87561751901e-12
1.74624953341e-10
4.50245647256e-12
1.71531386731e-10
4.1561090609e-12
1.68675979892e-10
3.83460392962e-12
1.66041887521e-10
3.53606315451e-12
1.63613527268e-10
3.25871727393e-12
1.6137649936e-10
3.00091563057e-12
1.59317499411e-10
2.76113395849e-12
1.57424225238e-10
2.53798088413e-12
1.55685277697e-10
2.33020494024e-12
1.54090054244e-10
2.13670361427e-12
1.52628632858e-10
1.95653614961e-12
1.51291642729e-10
1.78894197827e-12
1.50070116475e-10
1.63336720156e-12
1.48955317116e-10
1.4895020604e-12
1.47938530591e-10
1.3573333952e-12
1.47010812469e-10
1.23721723194e-12
1.46162674375e-10
1.12997847714e-12
1.45383693951e-10
1.03704660086e-12
1.44662031804e-10
9.60638300784e-13
1.43983847302e-10
9.03997968259e-13
1.43332632782e-10
8.71699009676e-13
1.42688569022e-10
8.69974259916e-13
1.42028224921e-10
9.06924792749e-13
1.41325509019e-10
9.92060755319e-13
1.40556214956e-10
1.13334745684e-12
1.39713113223e-10
1.32458964905e-12
1.49966212736e-12
9.76219521969e-10
1.89971106088e-10
9.62966688166e-10
3.06400857633e-10
9.06051844305e-10
3.00208772698e-10
8.3363913662e-10
2.58171405864e-10
7.60724291383e-10
2.12707616759e-10
6.93719926695e-10
1.72979382955e-10
6.34698133316e-10
1.40546586213e-10
5.83764568798e-10
1.14676272532e-10
5.40237176117e-10
9.41381532154e-11
5.03195316341e-10
7.77714499476e-11
4.71718289679e-10
6.46265742593e-11
4.44977072313e-10
5.3967134136e-11
4.2225971464e-10
4.52336241818e-11
4.02968746107e-10
3.80031290763e-11
3.86608313648e-10
3.19551130385e-11
3.72768904501e-10
2.68449380986e-11
3.61112870684e-10
2.24841514852e-11
3.51361863608e-10
1.87260495713e-11
3.43286368721e-10
1.54551564858e-11
3.36697169042e-10
1.25795442217e-11
3.31438450684e-10
1.00251973877e-11
3.27382257708e-10
7.73184810758e-12
3.24424033445e-10
5.64987106859e-12
3.22479030477e-10
3.73794835108e-12
3.21479410173e-10
1.96129737e-12
3.21371890626e-10
2.90315659229e-13
3.22115827777e-10
-1.30046258172e-12
3.23681637709e-10
-2.8331680662e-12
3.26049487364e-10
-4.32721854051e-12
3.29208193543e-10
-5.79979703732e-12
3.33154274874e-10
-7.26620789441e-12
3.37891111634e-10
-8.74012897107e-12
3.43428168364e-10
-1.0233771478e-11
3.49780239202e-10
-1.17579519544e-11
3.56966671872e-10
-1.3322077421e-11
3.65010528383e-10
-1.49340399543e-11
3.7393763396e-10
-1.66000153399e-11
3.83775466678e-10
-1.83241576468e-11
3.94551833535e-10
-2.01081827293e-11
4.0629328165e-10
-2.1950834599e-11
4.19023190766e-10
-2.38472352725e-11
4.32759504304e-10
-2.57881270776e-11
4.47512065733e-10
-2.77590328626e-11
4.63279555585e-10
-2.97393795484e-11
4.80046056298e-10
-3.1701659326e-11
4.97777327276e-10
-3.36107331413e-11
5.16416931895e-10
-3.54234140982e-11
5.3588243672e-10
-3.70884906243e-11
5.56061973099e-10
-3.85473558514e-11
5.76811518548e-10
-3.9735383329e-11
5.97953283042e-10
-4.05841279854e-11
6.19275577311e-10
-4.10243307047e-11
6.40534466707e-10
-4.09895871114e-11
6.61457399886e-10
-4.04204292706e-11
6.81748844199e-10
-3.92685022304e-11
7.01097808599e-10
-3.75005078595e-11
7.19186992241e-10
-3.51016335631e-11
7.35703192945e-10
-3.20782416742e-11
7.50348513328e-10
-2.84596354237e-11
7.62851819938e-10
-2.42987123517e-11
7.72979803858e-10
-1.9671272769e-11
7.80546872372e-10
-1.46736788369e-11
7.8542296049e-10
-9.41853618861e-12
7.87538296906e-10
-4.02825164179e-12
7.8688433642e-10
1.37311887433e-12
7.83510643686e-10
6.66847694957e-12
7.77518370939e-10
1.17548465715e-11
7.6905170564e-10
1.65475496622e-11
7.58288902645e-10
2.09808607211e-11
7.45434183077e-10
2.50058679948e-11
7.30711079922e-10
2.85870731727e-11
7.14357153937e-10
3.16992119487e-11
6.96619603837e-10
3.43251918639e-11
6.77751204688e-10
3.64553693095e-11
6.58006122104e-10
3.80878901529e-11
6.37635381377e-10
3.9229570968e-11
6.16882012796e-10
3.98967509648e-11
5.95976107978e-10
4.01156390412e-11
5.75130149795e-10
3.99218561021e-11
5.54535019599e-10
3.93590918832e-11
5.34357022591e-10
3.84770056985e-11
5.14736146731e-10
3.73286589758e-11
4.95785604614e-10
3.59678353268e-11
4.77592559629e-10
3.44465822088e-11
4.60219821775e-10
3.28132168208e-11
4.43708243354e-10
3.11109213983e-11
4.2807953227e-10
2.93769408125e-11
4.1333923255e-10
2.76423148649e-11
3.99479667935e-10
2.59320314317e-11
3.8648270434e-10
2.42654742886e-11
3.74322237703e-10
2.26570475225e-11
3.62966361777e-10
2.11168803888e-11
3.52379202111e-10
1.96515406936e-11
3.42522428935e-10
1.82647093184e-11
3.33356474083e-10
1.69577875505e-11
3.24841487275e-10
1.5730424527e-11
3.16938067624e-10
1.45809618492e-11
3.09607807689e-10
1.35067996013e-11
3.02813682812e-10
1.25046911737e-11
2.96520316469e-10
1.15709764587e-11
2.90694146635e-10
1.07017628989e-11
2.85303515399e-10
9.89306380912e-12
2.80318698967e-10
9.14090219595e-12
2.75711892745e-10
8.44138755188e-12
2.71457162213e-10
7.79077183017e-12
2.67530368406e-10
7.18549003924e-12
2.63909073905e-10
6.62218994783e-12
2.60572433758e-10
6.09775482611e-12
2.57501073682e-10
5.60932262661e-12
2.5467695656e-10
5.15430469418e-12
2.52083236808e-10
4.73040700312e-12
2.49704100738e-10
4.3356568596e-12
2.47524590062e-10
3.96843833167e-12
2.45530404104e-10
3.62753984998e-12
2.43707675803e-10
3.31221809731e-12
2.4204271536e-10
3.02228257579e-12
2.405217165e-10
2.75820585694e-12
2.39130421785e-10
2.52126392725e-12
2.37853750743e-10
2.31370937534e-12
2.36675408032e-10
2.13897368168e-12
2.35577520208e-10
2.00187943887e-12
2.34540409315e-10
1.90880447525e-12
2.33542731008e-10
1.86764811118e-12
2.32562426821e-10
1.88722541088e-12
2.31579325339e-10
1.97515949594e-12
2.30580815413e-10
2.13185545221e-12
2.29571004501e-10
2.33439935415e-12
2.49794711189e-12
9.71755450463e-10
1.55715655125e-10
9.86636181831e-10
2.91520121835e-10
9.68079389426e-10
3.18765560602e-10
9.2770417551e-10
2.98546614631e-10
8.77367576356e-10
2.63044210412e-10
8.24594778551e-10
2.25752175298e-10
7.73538798713e-10
1.91602560795e-10
7.26235612207e-10
1.61979454063e-10
6.83501373919e-10
1.36872386843e-10
6.45489100595e-10
1.1578371897e-10
6.12014439152e-10
9.81012317875e-11
5.82739422426e-10
8.32421473815e-11
5.57272729624e-10
7.07003139652e-11
5.35222151694e-10
6.00537044921e-11
5.16220266475e-10
5.09569962665e-11
4.99935424437e-10
4.31297787048e-11
4.86074912534e-10
3.63446625208e-11
4.74384142777e-10
3.04168190506e-11
4.64643986654e-10
2.51953129102e-11
4.56667401198e-10
2.05561305721e-11
4.50295944243e-10
1.63966558026e-11
4.45396473257e-10
1.26313211219e-11
4.41858155084e-10
9.18819179407e-12
4.39589825989e-10
6.00628051247e-12
4.3851769468e-10
3.03343220055e-12
4.38583359736e-10
2.24654560304e-13
4.39742101948e-10
-2.45920047407e-12
4.41961407835e-10
-5.05246929677e-12
4.4521968832e-10
-7.58549411373e-12
4.49505149086e-10
-1.0085252664e-11
4.54814771766e-10
-1.25758252891e-11
4.61153367331e-10
-1.50787191301e-11
4.68532661137e-10
-1.76130598304e-11
4.76970368988e-10
-2.01956543141e-11
4.86489219927e-10
-2.28409228905e-11
4.97115879803e-10
-2.55606943641e-11
5.0887972473e-10
-2.83638548372e-11
5.2181141169e-10
-3.12558391594e-11
5.35941189414e-10
-3.42379549844e-11
5.51296893784e-10
-3.73065333807e-11
5.67901573385e-10
-4.04519091162e-11
5.85770701217e-10
-4.3657248837e-11
6.04908943731e-10
-4.68972688942e-11
6.2530648797e-10
-5.0136916705e-11
6.46934967464e-10
-5.33301310055e-11
6.69743086541e-10
-5.64188434482e-11
6.93652113476e-10
-5.93324311634e-11
7.18551498752e-10
-6.19878647096e-11
7.44294958915e-10
-6.42908033843e-11
7.70697441326e-10
-6.61378515106e-11
7.97533422544e-10
-6.74200933556e-11
8.24536980283e-10
-6.802787096e-11
8.51403995151e-10
-6.78565830404e-11
8.77796694944e-10
-6.68131088947e-11
9.03350566592e-10
-6.48223529436e-11
9.27683473812e-10
-6.18333939102e-11
9.50406655809e-10
-5.7824794922e-11
9.71137162892e-10
-5.28087294445e-11
9.8951118743e-10
-4.68336429211e-11
1.00519766184e-09
-3.99851728543e-11
1.01791139377e-09
-3.23849948016e-11
1.02742487943e-09
-2.41871592409e-11
1.03357775838e-09
-1.55714150261e-11
1.0362827365e-09
-6.73323500609e-12
1.03552693714e-09
2.12890759623e-12
1.0313683027e-09
1.08270956203e-11
1.02392778543e-09
1.91953433135e-11
1.01337906064e-09
2.70962497842e-11
9.99937810071e-10
3.44220831647e-11
9.83852133531e-10
4.10915137756e-11
9.65394716744e-10
4.7044457331e-11
9.44856569014e-10
5.22373259782e-11
9.22541712767e-10
5.66400139687e-11
8.98762150922e-10
6.02348971684e-11
8.73832612378e-10
6.30173952738e-11
8.48064854866e-10
6.49972959995e-11
8.21761587645e-10
6.61999868521e-11
7.95210313349e-10
6.66668833426e-11
7.6867753337e-10
6.6454607447e-11
7.42403798948e-10
6.56327990497e-11
7.16600012713e-10
6.42807659292e-11
6.91445227518e-10
6.2483419309e-11
6.67085992504e-10
6.03270464099e-11
6.43637118011e-10
5.78954335403e-11
6.21183600509e-10
5.52667117019e-11
5.99783385698e-10
5.25111139796e-11
5.79470640362e-10
4.9689664117e-11
5.60259240657e-10
4.68536926319e-11
5.42146241455e-10
4.40450086584e-11
5.25115157674e-10
4.12965360104e-11
5.09138948076e-10
3.86332349094e-11
4.94182643969e-10
3.60731621436e-11
4.80205602923e-10
3.36285592321e-11
4.6716339596e-10
3.13068936722e-11
4.55009353078e-10
2.91118077488e-11
4.43695802688e-10
2.704395224e-11
4.3317504375e-10
2.51016981683e-11
4.23400090531e-10
2.32817303549e-11
4.14325226967e-10
2.15795324903e-11
4.05906404841e-10
1.99897766511e-11
3.98101515159e-10
1.85066310266e-11
3.90870558413e-10
1.71239994686e-11
3.84175734726e-10
1.58357053252e-11
3.7798147153e-10
1.4635630795e-11
3.72254402574e-10
1.35178214887e-11
3.66963309409e-10
1.24765646233e-11
3.6207903356e-10
1.15064479747e-11
3.57574365578e-10
1.06024057883e-11
3.53423915035e-10
9.75975698284e-12
3.49603963935e-10
8.97424047025e-12
3.46092304513e-10
8.24205198402e-12
3.42868061173e-10
7.55988665546e-12
3.39911495388e-10
6.92499147931e-12
3.3720379168e-10
6.33523183007e-12
3.34726822858e-10
5.78917609847e-12
3.32462893399e-10
5.28620211006e-12
3.30394462451e-10
4.82662776641e-12
3.28503852846e-10
4.41186535544e-12
3.26772962431e-10
4.04459245833e-12
3.25183010941e-10
3.72891865844e-12
3.23714385427e-10
3.47049924568e-12
3.22346695265e-10
3.27648971382e-12
3.21059222789e-10
3.15511643661e-12
3.19832054901e-10
3.11438988462e-12
3.18648260053e-10
3.15895172453e-12
3.17497188964e-10
3.28292473816e-12
3.1637686555e-10
3.45472173826e-12
3.59046978726e-12
9.63945894222e-10
1.29269758213e-10
9.87700274638e-10
2.67765734534e-10
9.89787317592e-10
3.16678510595e-10
9.72291779351e-10
3.16042145871e-10
9.4215746951e-10
2.93178513144e-10
9.05427926656e-10
2.62481711145e-10
8.66295283902e-10
2.30735196757e-10
8.27404532459e-10
2.0087019899e-10
7.90310239581e-10
1.73966673507e-10
7.5585024118e-10
1.50243711503e-10
7.24410287142e-10
1.29541180329e-10
6.96100860048e-10
1.11551569399e-10
6.70871701198e-10
9.59294681811e-11
6.48584439808e-10
8.23409617385e-11
6.29057806949e-10
7.04836254868e-11
6.12095210777e-10
6.00923717833e-11
5.97501101919e-10
5.09387688312e-11
5.85090292642e-10
4.2827626358e-11
5.74692898755e-10
3.55927053914e-11
5.66156603175e-10
2.90924253302e-11
5.59347314792e-10
2.3205943916e-11
5.5414889716e-10
1.78297390445e-11
5.50462385995e-10
1.28747037632e-11
5.48204953046e-10
8.26371477644e-12
5.47308770158e-10
3.92961684978e-12
5.47719862691e-10
-1.86435778693e-13
5.49396996816e-10
-4.13633204663e-12
5.52310620552e-10
-7.96609014582e-12
5.5644186891e-10
-1.1716739332e-11
5.61781617476e-10
-1.54249978633e-11
5.68329567858e-10
-1.91237721634e-11
5.76093342073e-10
-2.28424897154e-11
5.85087556517e-10
-2.66072706027e-11
5.95332842104e-10
-3.04409361928e-11
6.06854771227e-10
-3.43628483323e-11
6.19682648362e-10
-3.8388567824e-11
6.33848115328e-10
-4.25293181721e-11
6.49383519144e-10
-4.67912393318e-11
6.66319986284e-10
-5.11744184671e-11
6.84685147601e-10
-5.56716909257e-11
7.04500460052e-10
-6.02672176321e-11
7.2577808144e-10
-6.49348659792e-11
7.48517270489e-10
-6.963645329e-11
7.72700314532e-10
-7.4319955491e-11
7.98288029312e-10
-7.8917839789e-11
8.25214937222e-10
-8.33457443903e-11
8.53384307485e-10
-8.75017933315e-11
8.82663336133e-10
-9.12668838967e-11
9.12878840819e-10
-9.45062971083e-11
9.43813933797e-10
-9.70729318306e-11
9.75206186239e-10
-9.88123313974e-11
1.00674778747e-09
-9.95694559926e-11
1.03808810917e-09
-9.91968868703e-11
1.06883891433e-09
-9.75638947065e-11
1.0985822279e-09
-9.45656461309e-11
1.12688066526e-09
-9.01318103368e-11
1.1532898351e-09
-8.42339440742e-11
1.17737231351e-09
-7.68911882202e-11
1.19871259712e-09
-6.81739089559e-11
1.21693236564e-09
-5.82049267915e-11
1.23170529448e-09
-4.7157913011e-11
1.2427705273e-09
-3.52523860903e-11
1.24994367871e-09
-2.27445657089e-11
1.25312394882e-09
-9.91350985448e-12
1.25229593157e-09
2.95691461991e-12
1.24752545252e-09
1.55975592347e-11
1.23895026925e-09
2.77705063739e-11
1.22676787715e-09
3.92786175989e-11
1.21122307936e-09
4.99668533073e-11
1.19259722009e-09
5.97173429472e-11
1.17119968447e-09
6.84419611854e-11
1.14736124505e-09
7.60757327673e-11
1.12142839115e-09
8.25728350099e-11
1.09375780557e-09
8.79054502209e-11
1.06471042399e-09
9.20647450241e-11
1.03464486288e-09
9.50628263451e-11
1.00391033314e-09
9.69344870462e-11
9.72839423236e-10
9.77377650879e-11
9.41741296388e-10
9.75527075409e-11
9.10895881152e-10
9.64781889298e-11
8.8054953381e-10
9.46270891813e-11
8.50912452735e-10
9.21204774393e-11
8.22157886741e-10
8.90815903889e-11
7.94422968932e-10
8.56303300951e-11
7.6781086251e-10
8.18787974069e-11
7.42393841292e-10
7.79281148579e-11
7.18216929878e-10
7.38665553826e-11
6.95301777508e-10
6.97688249331e-11
6.73650508923e-10
6.56962571279e-11
6.53249370319e-10
6.16976543983e-11
6.34072054492e-10
5.78105303569e-11
6.160826443e-10
5.40625517929e-11
5.99238153615e-10
5.04730292045e-11
5.83490673812e-10
4.70543526349e-11
5.68789151269e-10
4.3813309356e-11
5.55080831981e-10
4.07522505692e-11
5.42312413326e-10
3.78700958996e-11
5.30430944053e-10
3.51631788229e-11
5.19384511231e-10
3.26259446961e-11
5.09122749955e-10
3.02515175852e-11
4.99597207245e-10
2.80321537403e-11
4.90761587632e-10
2.59595995084e-11
4.82571903522e-10
2.40253703536e-11
4.74986549755e-10
2.22209660346e-11
4.67966318126e-10
2.05380352032e-11
4.61474364594e-10
1.89685009034e-11
4.55476139138e-10
1.75046568887e-11
4.49939285879e-10
1.61392432497e-11
4.44833519078e-10
1.48655087674e-11
4.40130478877e-10
1.36772664539e-11
4.35803569334e-10
1.25689481354e-11
4.31827780087e-10
1.15356633422e-11
4.28179492418e-10
1.05732674362e-11
4.24836270031e-10
9.67844334391e-12
4.21776635464e-10
8.84880063737e-12
4.18979834141e-10
8.08299422995e-12
4.16425591127e-10
7.38086239526e-12
4.14093870327e-10
6.74357855621e-12
4.119646543e-10
6.17380165746e-12
4.10017775306e-10
5.6757915592e-12
4.08232847241e-10
5.25542193978e-12
4.06589373058e-10
4.91995922109e-12
4.05067129888e-10
4.6773556285e-12
4.03646940494e-10
4.53457597172e-12
4.02311834104e-10
4.49405550065e-12
4.01048057924e-10
4.54669913478e-12
3.99843437723e-10
4.65934093878e-12
4.75703699679e-12
9.5756073609e-10
1.09209019197e-10
9.82587248325e-10
2.42739214844e-10
9.95118454913e-10
3.0414729679e-10
9.92410778706e-10
3.18749814262e-10
9.77611473676e-10
3.07977810004e-10
9.54823255194e-10
2.85269921489e-10
9.27498499786e-10
2.58059944229e-10
8.98170887724e-10
2.30197803386e-10
8.68578692804e-10
2.03558861061e-10
8.3985786179e-10
1.78964535488e-10
8.12714086301e-10
1.56684949155e-10
7.87555830889e-10
1.36709818554e-10
7.64591384798e-10
1.18893908447e-10
7.43897607026e-10
1.03034734157e-10
7.25467749896e-10
8.89134777569e-11
7.09244288219e-10
7.63158291254e-11
6.95141188588e-10
6.50418646633e-11
6.83058825997e-10
5.49099857073e-11
6.72893823373e-10
4.57577053282e-11
6.64545410153e-10
3.74408364277e-11
6.57919410215e-10
2.98319422763e-11
6.52930627387e-10
2.28185208369e-11
6.49504156819e-10
1.63011738045e-11
6.47575984009e-10
1.01918875527e-11
6.47093116937e-10
4.41248433321e-12
6.48013416703e-10
-1.10673471674e-12
6.5030523028e-10
-6.4281444383e-12
6.53946900172e-10
-1.16077585309e-11
6.58926195544e-10
-1.66960329444e-11
6.65239678482e-10
-2.17384788256e-11
6.72892012297e-10
-2.67761038587e-11
6.81895206348e-10
-3.18456815346e-11
6.92267781556e-10
-3.69798435311e-11
7.04033833125e-10
-4.22069854542e-11
7.17221959069e-10
-4.75509719851e-11
7.31864016997e-10
-5.30306234721e-11
7.47993664886e-10
-5.865896381e-11
7.656446368e-10
-6.44422089804e-11
7.84848699871e-10
-7.03784792368e-11
8.05633237709e-10
-7.64562263375e-11
8.28018406558e-10
-8.2652383862e-11
8.52013818641e-10
-8.89302751113e-11
8.77614722119e-10
-9.52373533675e-11
9.04797675147e-10
-1.01502904484e-10
9.33515753592e-10
-1.07635913402e-10
9.63693394633e-10
-1.13523379579e-10
9.95221061002e-10
-1.19029452641e-10
1.02795001424e-09
-1.23995828633e-10
1.06168759873e-09
-1.28243871467e-10
1.09619354578e-09
-1.31578866927e-10
1.13117787698e-09
-1.33796648698e-10
1.16630098579e-09
-1.34692548886e-10
1.20117637577e-09
-1.34072258976e-10
1.23537633238e-09
-1.31763831644e-10
1.26844053834e-09
-1.27629830996e-10
1.29988738116e-09
-1.21578631173e-10
1.32922750725e-09
-1.13574048054e-10
1.35597906699e-09
-1.03642726659e-10
1.37968402748e-09
-9.18788500298e-11
1.3999248659e-09
-7.84457488111e-11
1.41634088916e-09
-6.35739240013e-11
1.42864331065e-09
-4.75548003649e-11
1.43662790146e-09
-3.07291550115e-11
1.44018349702e-09
-1.34691099485e-11
1.43929437168e-09
3.84602939711e-12
1.43403532687e-09
2.085658779e-11
1.42456042627e-09
3.72453856221e-11
1.41108839208e-09
5.2750626156e-11
1.39388823522e-09
6.71669811996e-11
1.37326746718e-09
8.03380796728e-11
1.34956336855e-09
9.21460271105e-11
1.32313648626e-09
1.02502581806e-10
1.29436512109e-09
1.11344167057e-10
1.26363974463e-09
1.18630794199e-10
1.2313566968e-09
1.24347761382e-10
1.1979109607e-09
1.28508532227e-10
1.16368820293e-09
1.31157216021e-10
1.12905656963e-09
1.32369371116e-10
1.09435891245e-09
1.32250338964e-10
1.05990614989e-09
1.30930927205e-10
1.02597233689e-09
1.2856087923e-10
9.92791762277e-10
1.25301030266e-10
9.60558099649e-10
1.21315232194e-10
9.29425386437e-10
1.16763023253e-10
8.9951044621e-10
1.1179371813e-10
8.70896309997e-10
1.06542231945e-10
8.43636211633e-10
1.01126634821e-10
8.17757799901e-10
9.56472178169e-11
7.93267296004e-10
9.01867421362e-11
7.7015341027e-10
8.48115211394e-11
7.48390904484e-10
7.95730169877e-11
7.27943743379e-10
7.45096935741e-11
7.08767819464e-10
6.96489336216e-11
6.90813263203e-10
6.50088892626e-11
6.74026367139e-10
6.06001856818e-11
6.58351162037e-10
5.64274358989e-11
6.43730686473e-10
5.24905517119e-11
6.30107991776e-10
4.87858538717e-11
6.17426921769e-10
4.53069952261e-11
6.05632703662e-10
4.20457164699e-11
5.94672382216e-10
3.89924562887e-11
5.84495125319e-10
3.61368379092e-11
5.75052424909e-10
3.34680527308e-11
5.66298213497e-10
3.09751599436e-11
5.58188912988e-10
2.86473187903e-11
5.50683429522e-10
2.64739680816e-11
5.4374310528e-10
2.44449655168e-11
5.37331635946e-10
2.25506976816e-11
5.31414960486e-10
2.07821700648e-11
5.25961128282e-10
1.91310852603e-11
5.2094014731e-10
1.75899164904e-11
5.16323816054e-10
1.61519827763e-11
5.12085541192e-10
1.48115312743e-11
5.08200142901e-10
1.35638314111e-11
5.04643649947e-10
1.2405284163e-11
5.0139308781e-10
1.13335477192e-11
4.984262652e-10
1.03476771212e-11
4.95721567621e-10
9.44826899099e-12
4.93257771767e-10
8.63759107731e-12
4.91013901361e-10
7.9196562087e-12
4.88969153315e-10
7.30016488034e-12
4.87102929716e-10
6.78617834252e-12
4.85395006436e-10
6.38527506483e-12
4.83825821684e-10
6.10375753904e-12
4.82376687519e-10
5.94318720049e-12
4.81029175671e-10
5.89420933146e-12
4.79761670642e-10
5.92684507431e-12
5.97887321968e-12
9.52947497906e-10
9.37615169983e-11
9.76543387699e-10
2.19143316208e-10
9.93926170546e-10
2.86764505068e-10
1.00038071984e-09
3.12295256243e-10
9.96534976129e-10
3.11823544903e-10
9.8479753886e-10
2.97007350056e-10
9.67709176804e-10
2.75148297808e-10
9.47400653476e-10
2.50506318516e-10
9.25501095645e-10
2.25458411003e-10
9.03195107871e-10
2.0127051571e-10
8.81313691928e-10
1.78566357914e-10
8.60420376343e-10
1.57603127356e-10
8.40882190686e-10
1.38432087754e-10
8.22924844621e-10
1.20992074337e-10
8.06674379473e-10
1.05163937512e-10
7.92188066543e-10
9.08021371784e-11
7.79477056739e-10
7.77528701255e-11
7.68522826064e-10
6.5864212589e-11
7.59289011268e-10
5.49915168841e-11
7.51729848992e-10
4.49999960165e-11
7.45796128119e-10
3.57656610095e-11
7.41439330805e-10
2.71753165425e-11
7.38614459846e-10
1.91260436661e-11
7.37281916726e-10
1.1524430058e-11
7.3740869518e-10
4.28570571289e-12
7.3896908171e-10
-2.66712100666e-12
7.41944990941e-10
-9.40405306746e-12
7.46326045383e-10
-1.59888120603e-11
7.52109457577e-10
-2.24794439675e-11
7.59299751696e-10
-2.89287715706e-11
7.67908348191e-10
-3.53846988273e-11
7.77953019785e-10
-4.18903515046e-11
7.89457214824e-10
-4.84840368905e-11
8.02449233795e-10
-5.51990027301e-11
8.16961235731e-10
-6.20629722347e-11
8.33028043119e-10
-6.90974291978e-11
8.50685706375e-10
-7.63166254198e-11
8.69969782369e-10
-8.37262833247e-11
8.90913275911e-10
-9.13219710762e-11
9.13544189595e-10
-9.9087138201e-11
9.37882626904e-10
-1.06990819136e-10
9.63937398166e-10
-1.14985044008e-10
9.91702091299e-10
-1.23002043657e-10
1.02115059334e-09
-1.30951403042e-10
1.05223208893e-09
-1.38717404676e-10
1.08486562372e-09
-1.46156909015e-10
1.11893440815e-09