/*--------------------------------*- C++ -*----------------------------------*\
  =========                 |
  \\      /  F ield         | OpenFOAM: The Open Source CFD Toolbox
   \\    /   O peration     | Website:  https://openfoam.org
    \\  /    A nd           | Version:  7
     \\/     M anipulation  |
\*---------------------------------------------------------------------------*/
FoamFile
{
    version     2.0;
    format      ascii;
    class       volVectorField;
    location    "1620";
    object      U;
}
// * * * * * * * * * * * * * * * * * * * * * * * * * * * * * * * * * * * * * //

dimensions      [0 1 -1 0 0 0 0];

internalField   nonuniform List<vector> 
8192
(
(0.00104346371943 0.000156536280573 0)
(0.000759330034312 0.000127597405344 0)
(0.000549337628034 8.23950021114e-05 0)
(0.000414090644486 5.28519817605e-05 0)
(0.000326283447924 3.49552143857e-05 0)
(0.000267264904874 2.40633278576e-05 0)
(0.000225969850196 1.72317259771e-05 0)
(0.000195961027927 1.2777095588e-05 0)
(0.000173430846187 9.75308565577e-06 0)
(0.000156057038175 7.62072210373e-06 0)
(0.000142371368349 6.06494773855e-06 0)
(0.000131410820287 4.89560064057e-06 0)
(0.000122521308735 3.99391155204e-06 0)
(0.000115244263068 3.28313510985e-06 0)
(0.00010924908303 2.71204629795e-06 0)
(0.000104291629338 2.24540916281e-06 0)
(0.000100187912235 1.85831012279e-06 0)
(9.67969154302e-05 1.532689294e-06 0)
(9.40090729705e-05 1.25515621308e-06 0)
(9.17383432942e-05 1.01557695222e-06 0)
(8.99166334196e-05 8.06136848672e-07 0)
(8.84897967887e-05 6.20704141898e-07 0)
(8.74147090185e-05 4.54388406728e-07 0)
(8.66570976968e-05 3.03228098371e-07 0)
(8.61899098724e-05 1.63965290013e-07 0)
(8.59920698276e-05 3.38806761632e-08 0)
(8.60475245754e-05 -8.93291776681e-08 0)
(8.63445038213e-05 -2.07643527857e-07 0)
(8.68749411943e-05 -3.22787049254e-07 0)
(8.76340186574e-05 -4.36283397716e-07 0)
(8.86198046961e-05 -5.49495445468e-07 0)
(8.98329620466e-05 -6.63654565059e-07 0)
(9.12765048737e-05 -7.79880815408e-07 0)
(9.29555878343e-05 -8.99194621414e-07 0)
(9.48773103569e-05 -1.02252032861e-06 0)
(9.70505193589e-05 -1.15068106897e-06 0)
(9.94855924525e-05 -1.28438440075e-06 0)
(0.000102194181889 -1.42419738986e-06 0)
(0.000105188897036 -1.57051007984e-06 0)
(0.00010848290067 -1.7234858168e-06 0)
(0.000112089392056 -1.8829977353e-06 0)
(0.000116020948789 -2.04855100971e-06 0)
(0.00012028870048 -2.21919247196e-06 0)
(0.000124901312407 -2.3934109403e-06 0)
(0.000129863767576 -2.56903531481e-06 0)
(0.000135175953154 -2.74314084268e-06 0)
(0.000140831082732 -2.9119786993e-06 0)
(0.000146814019167 -3.07094697149e-06 0)
(0.000153099600955 -3.21462321974e-06 0)
(0.000159651112847 -3.33687615483e-06 0)
(0.000166419070346 -3.4310678467e-06 0)
(0.000173340498646 -3.49034595861e-06 0)
(0.000180338872243 -3.50801218873e-06 0)
(0.000187324840345 -3.47793962827e-06 0)
(0.000194197801663 -3.39500478166e-06 0)
(0.000200848322905 -3.25549923816e-06 0)
(0.000207161332013 -3.05749275137e-06 0)
(0.00021301996784 -2.8011265713e-06 0)
(0.000218309930631 -2.48882091419e-06 0)
(0.000222924142473 -2.12537744099e-06 0)
(0.000226767479592 -1.7179486232e-06 0)
(0.000229761266878 -1.27583059793e-06 0)
(0.000231847130975 -8.10028881216e-07 0)
(0.000232989728175 -3.32567475924e-07 0)
(0.000233177877605 1.44414929216e-07 0)
(0.000232423826059 6.0962949833e-07 0)
(0.000230760760432 1.05342509977e-06 0)
(0.000228239104893 1.46821571577e-06 0)
(0.00022492238869 1.84848240306e-06 0)
(0.000220883444406 2.19044086411e-06 0)
(0.000216201410405 2.49156969091e-06 0)
(0.00021095962689 2.75018848956e-06 0)
(0.000205244213833 2.96519789028e-06 0)
(0.000199142983296 3.13600514024e-06 0)
(0.000192744356399 3.26259388758e-06 0)
(0.000186136067565 3.34566711208e-06 0)
(0.000179403584646 3.38678834034e-06 0)
(0.000172628308325 3.38846113508e-06 0)
(0.000165885711229 3.35410992254e-06 0)
(0.000159243622738 3.28795344159e-06 0)
(0.000152760857711 3.19478741347e-06 0)
(0.000146486334749 3.07971230789e-06 0)
(0.000140458750914 2.94784915094e-06 0)
(0.000134706796968 2.80408317712e-06 0)
(0.000129249829979 2.65286282777e-06 0)
(0.000124098879436 2.4980672264e-06 0)
(0.000119257850805 2.34294128245e-06 0)
(0.000114724801005 2.19008863767e-06 0)
(0.000110493185099 2.0415075285e-06 0)
(0.000106553003523 1.89865436351e-06 0)
(0.00010289180821 1.76252126097e-06 0)
(9.94955499236e-05 1.63371729182e-06 0)
(9.63492667554e-05 1.51254608263e-06 0)
(9.34376251146e-05 1.39907570259e-06 0)
(9.07453308641e-05 1.29319865196e-06 0)
(8.82574306386e-05 1.19468166571e-06 0)
(8.5959523388e-05 1.10320571163e-06 0)
(8.38379005011e-05 1.01839738452e-06 0)
(8.18796306239e-05 9.39852844701e-07 0)
(8.00726026099e-05 8.67155721423e-07 0)
(7.84055376266e-05 7.99890079436e-07 0)
(7.68679790775e-05 7.37649610992e-07 0)
(7.54502671297e-05 6.80043865605e-07 0)
(7.41435028934e-05 6.26702340957e-07 0)
(7.29395060466e-05 5.77276974761e-07 0)
(7.18307684989e-05 5.31443586957e-07 0)
(7.08104058915e-05 4.88902627995e-07 0)
(6.98721078948e-05 4.49379606726e-07 0)
(6.90100877272e-05 4.12625467926e-07 0)
(6.8219030646e-05 3.78417216734e-07 0)
(6.74940406829e-05 3.4655907475e-07 0)
(6.68305841791e-05 3.16884500461e-07 0)
(6.62244280081e-05 2.89259503732e-07 0)
(6.56715693141e-05 2.63587794395e-07 0)
(6.51681523252e-05 2.39818579215e-07 0)
(6.4710365792e-05 2.17958119492e-07 0)
(6.42943117945e-05 1.98086824893e-07 0)
(6.39158321608e-05 1.80384529102e-07 0)
(6.35702717921e-05 1.65168326128e-07 0)
(6.32521466859e-05 1.52950020385e-07 0)
(6.29546654466e-05 1.44525204684e-07 0)
(6.26690209856e-05 1.41113980932e-07 0)
(6.23833165281e-05 1.44585943771e-07 0)
(6.20809125824e-05 1.57814219651e-07 0)
(6.17379126682e-05 1.85182668513e-07 0)
(6.13197321399e-05 2.32995567162e-07 0)
(6.07785818653e-05 3.08153047396e-07 0)
(6.00750361341e-05 3.953915797e-07 0)
(0.00121017428034 0.000302898282155 0)
(0.00116033122974 0.00031521214211 0)
(0.0010270007842 0.000238103118565 0)
(0.000887654081391 0.000171737550758 0)
(0.000767108330256 0.000124422590443 0)
(0.000668835480017 9.18873417624e-05 0)
(0.000590130648105 6.94075954595e-05 0)
(0.000527168263197 5.35724305793e-05 0)
(0.000476512219506 4.214397405e-05 0)
(0.000435428198735 3.36876612058e-05 0)
(0.000401831217413 2.72806593343e-05 0)
(0.000374151466804 2.2320188193e-05 0)
(0.0003512059812 1.84043226328e-05 0)
(0.000332096835444 1.52589180105e-05 0)
(0.0003161356409 1.26926416801e-05 0)
(0.000302788966173 1.05689471046e-05 0)
(0.000291639157126 8.78830447779e-06 0)
(0.000282356141177 7.27671511915e-06 0)
(0.000274676984846 5.97813789403e-06 0)
(0.00026839092451 4.84939529546e-06 0)
(0.000263328283274 3.85668090564e-06 0)
(0.000259352172034 2.97312049923e-06 0)
(0.000256352206492 2.17703910944e-06 0)
(0.000254239700588 1.4507095196e-06 0)
(0.000252943953543 7.79434711508e-07 0)
(0.000252409355843 1.50865966212e-07 0)
(0.000252593114377 -4.45509889465e-07 0)
(0.000253463448395 -1.01875742749e-06 0)
(0.000254998145174 -1.57678797285e-06 0)
(0.000257183391706 -2.12658657474e-06 0)
(0.000260012815282 -2.67438154441e-06 0)
(0.000263486676949 -3.22576680558e-06 0)
(0.000267611169942 -3.78578348704e-06 0)
(0.000272397779934 -4.35896384774e-06 0)
(0.000277862665681 -4.94933824769e-06 0)
(0.000284026018488 -5.5604038092e-06 0)
(0.000290911356833 -6.19505194639e-06 0)
(0.000298544709446 -6.85545071949e-06 0)
(0.000306953636405 -7.54287761323e-06 0)
(0.000316166034589 -8.25749869134e-06 0)
(0.000326208672148 -8.99809209409e-06 0)
(0.000337105398531 -9.76171756869e-06 0)
(0.000348874984167 -1.05433403275e-05 0)
(0.000361528559987 -1.13354269372e-05 0)
(0.000375066654537 -1.21275438582e-05 0)
(0.000389475867778 -1.29060043238e-05 0)
(0.000404725276844 -1.36536251156e-05 0)
(0.00042076273799 -1.4349667107e-05 0)
(0.000437511324463 -1.49700377383e-05 0)
(0.000454866210806 -1.54878234639e-05 0)
(0.00047269236453 -1.58741924368e-05 0)
(0.000490823419265 -1.6099662202e-05 0)
(0.000509062066919 -1.61356723624e-05 0)
(0.000527182217732 -1.59563513948e-05 0)
(0.000544933048047 -1.55403363075e-05 0)
(0.000562044909171 -1.487250144e-05 0)
(0.000578236931492 -1.39454743963e-05 0)
(0.000593226041075 -1.27608453973e-05 0)
(0.000606737010097 -1.13299933475e-05 0)
(0.000618513073367 -9.67444572282e-06 0)
(0.000628326541728 -7.82565926081e-06 0)
(0.000635988715666 -5.8240639076e-06 0)
(0.00064135825774 -3.71719486802e-06 0)
(0.000644347083791 -1.55682898574e-06 0)
(0.000644922911008 6.04684122686e-07 0)
(0.000643107993339 2.71830252884e-06 0)
(0.00063897428653 4.74148667447e-06 0)
(0.000632636049631 6.63999873375e-06 0)
(0.000624241349723 8.38805877547e-06 0)
(0.000613963897206 9.96719706631e-06 0)
(0.000601996141369 1.13645331223e-05 0)
(0.000588543880412 1.25711949221e-05 0)
(0.000573822094921 1.35813125177e-05 0)
(0.000558051447077 1.4391689919e-05 0)
(0.00054145488945 1.50020143904e-05 0)
(0.000524254004846 1.5415341546e-05 0)
(0.00050666494922 1.56385754973e-05 0)
(0.000488894112099 1.56827125947e-05 0)
(0.00047113379002 1.55627053241e-05 0)
(0.000453558258187 1.52969087302e-05 0)
(0.000436320616377 1.4906172008e-05 0)
(0.000419550690869 1.44127117495e-05 0)
(0.000403354127762 1.38389344704e-05 0)
(0.000387812655169 1.32063641174e-05 0)
(0.000372985359143 1.25347861463e-05 0)
(0.00035891073276 1.18416632094e-05 0)
(0.000345609225171 1.1141824668e-05 0)
(0.000333086029239 1.0447394583e-05 0)
(0.000321333887944 9.76790257473e-06 0)
(0.000310335755118 9.11051750169e-06 0)
(0.000300067202774 8.48034942241e-06 0)
(0.000290498517031 7.88077659178e-06 0)
(0.000281596463711 7.31376648217e-06 0)
(0.000273325732283 6.78017139705e-06 0)
(0.000265650084235 6.27998818134e-06 0)
(0.000258533241177 5.81257835835e-06 0)
(0.000251939551331 5.37684921556e-06 0)
(0.000245834472396 4.97139912115e-06 0)
(0.000240184905842 4.59463145758e-06 0)
(0.000234959413431 4.24484212652e-06 0)
(0.000230128342252 3.9202852916e-06 0)
(0.000225663879937 3.61922175343e-06 0)
(0.000221540057646 3.33995366458e-06 0)
(0.000217732714639 3.08084885591e-06 0)
(0.000214219435145 2.84035739365e-06 0)
(0.000210979465465 2.61702264227e-06 0)
(0.000207993617042 2.40948863156e-06 0)
(0.000205244159213 2.21650534016e-06 0)
(0.000202714703775 2.03693323377e-06 0)
(0.000200390081879 1.86974837849e-06 0)
(0.000198256212442 1.71404938788e-06 0)
(0.000196299959745 1.56906763621e-06 0)
(0.000194508976376 1.43418236982e-06 0)
(0.000192871525891 1.30894280339e-06 0)
(0.000191376277498 1.19309989787e-06 0)
(0.000190012062532 1.08665149242e-06 0)
(0.000188767579558 9.89905853333e-07 0)
(0.000187631031581 9.03570754472e-07 0)
(0.000186589675729 8.28878150681e-07 0)
(0.000185629264483 7.67758532887e-07 0)
(0.000184733362628 7.2308390437e-07 0)
(0.000183882547254 6.99001347125e-07 0)
(0.000183053569154 7.01369470118e-07 0)
(0.000182218748123 7.38246087011e-07 0)
(0.000181346389722 8.20101551918e-07 0)
(0.000180404303344 9.58337939538e-07 0)
(0.000179372370035 1.15589042279e-06 0)
(0.000178268392358 1.35517534121e-06 0)
(0.00122478049406 0.000267943509478 0)
(0.00124107917449 0.000383711285651 0)
(0.00119617186078 0.000347841730981 0)
(0.00111340222779 0.000284115268751 0)
(0.00102039259392 0.000225600250783 0)
(0.00093084429957 0.000178530818996 0)
(0.000850187558407 0.000142125684659 0)
(0.000779816129353 0.000114188149412 0)
(0.000719361116745 9.26393064521e-05 0)
(0.000667796795173 7.58406670686e-05 0)
(0.000623944707853 6.25767191217e-05 0)
(0.000586685031675 5.19635533995e-05 0)
(0.00055503154365 4.33599305571e-05 0)
(0.000528146214878 3.62977855095e-05 0)
(0.000505329318243 3.04318677268e-05 0)
(0.000486001419615 2.55042983249e-05 0)
(0.000469684336118 2.13198513055e-05 0)
(0.000455983829947 1.77286975507e-05 0)
(0.00044457486869 1.46142818319e-05 0)
(0.000435189464168 1.18847266452e-05 0)
(0.000427606796624 9.46667038509e-06 0)
(0.00042164525337 7.30079914618e-06 0)
(0.000417156026338 5.33856818661e-06 0)
(0.00041401796091 3.53976836592e-06 0)
(0.000412133402016 1.87069973829e-06 0)
(0.000411424832511 3.02787311955e-07 0)
(0.000411832139778 -1.1884767641e-06 0)
(0.000413310377911 -2.624341462e-06 0)
(0.000415827920047 -4.02342078952e-06 0)
(0.000419364915781 -5.4021732809e-06 0)
(0.000423911979787 -6.77525915136e-06 0)
(0.000429469047365 -8.15579478201e-06 0)
(0.000436044339198 -9.55551641758e-06 0)
(0.000443653380842 -1.09848584772e-05 0)
(0.000452318023087 -1.24529474685e-05 0)
(0.000462065408163 -1.3967508311e-05 0)
(0.0004729268239 -1.55346773631e-05 0)
(0.000484936384408 -1.71587142236e-05 0)
(0.000498129472136 -1.88416044801e-05 0)
(0.000512540873718 -2.05825470179e-05 0)
(0.000528202542346 -2.23773249332e-05 0)
(0.000545140924845 -2.42175678887e-05 0)
(0.000563373804824 -2.60899288876e-05 0)
(0.000582906637644 -2.79752189079e-05 0)
(0.000603728391605 -2.9847570512e-05 0)
(0.000625806965487 -3.16737326915e-05 0)
(0.000649084325869 -3.34126314391e-05 0)
(0.000673471595913 -3.5015354135e-05 0)
(0.000698844422284 -3.64257222635e-05 0)
(0.000725039034654 -3.75815926397e-05 0)
(0.000751849473018 -3.84169665008e-05 0)
(0.000779026470626 -3.88648878944e-05 0)
(0.000806278428171 -3.88609959249e-05 0)
(0.00083327479462 -3.83474864997e-05 0)
(0.000859651996215 -3.72771729533e-05 0)
(0.000885021857791 -3.56173272319e-05 0)
(0.000908982272538 -3.33530271253e-05 0)
(0.000931129718519 -3.04897934974e-05 0)
(0.000951073092015 -2.70553391045e-05 0)
(0.00096844821329 -2.31002441869e-05 0)
(0.00098293223923 -1.86973252098e-05 0)
(0.000994257072787 -1.39393877653e-05 0)
(0.00100222069303 -8.93502914752e-06 0)
(0.00100669520473 -3.80234256056e-06 0)
(0.00100763048533 1.33906527304e-06 0)
(0.00100505278727 6.37649827824e-06 0)
(0.00099905856936 1.12111633805e-05 0)
(0.000989804849011 1.57622148018e-05 0)
(0.000977497989302 1.99673272339e-05 0)
(0.000962382774862 2.37805117189e-05 0)
(0.00094473296832 2.71686902619e-05 0)
(0.00092484366967 3.01085020797e-05 0)
(0.000903025124975 3.25842374203e-05 0)
(0.000879597317457 3.45871211368e-05 0)
(0.000854884689147 3.61156702007e-05 0)
(0.000829210562227 3.71765998535e-05 0)
(0.000802891132271 3.77857077744e-05 0)
(0.000776229197295 3.7968260446e-05 0)
(0.000749508004975 3.77585833069e-05 0)
(0.000722985708412 3.71987740939e-05 0)
(0.000696890907001 3.63366682415e-05 0)
(0.000671419628366 3.52233411861e-05 0)
(0.00064673392086 3.39104999286e-05 0)
(0.000622962025115 3.24480935539e-05 0)
(0.000600199924098 3.08823820839e-05 0)
(0.000578513961682 2.92545856779e-05 0)
(0.000557944176399 2.76001255055e-05 0)
(0.000538508009485 2.59483874589e-05 0)
(0.000520204096311 2.43228951625e-05 0)
(0.000503015918256 2.27417666829e-05 0)
(0.000486915162908 2.12183385758e-05 0)
(0.000471864703667 1.97618627488e-05 0)
(0.000457821160889 1.83782064434e-05 0)
(0.00044473704387 1.70705096582e-05 0)
(0.000432562497932 1.58397735617e-05 0)
(0.000421246695269 1.46853683899e-05 0)
(0.000410738915136 1.36054590874e-05 0)
(0.000400989360201 1.25973534814e-05 0)
(0.00039194975392 1.1657780964e-05 0)
(0.000383573759539 1.07831113387e-05 0)
(0.000375817256386 9.96952346748e-06 0)
(0.000368638503702 9.21313298027e-06 0)
(0.000361998217194 8.51008720438e-06 0)
(0.000355859578696 7.85663454816e-06 0)
(0.000350188195173 7.2491743902e-06 0)
(0.000344952019596 6.68429268043e-06 0)
(0.000340121243079 6.15878757018e-06 0)
(0.000335668164905 5.66968882214e-06 0)
(0.000331567044762 5.21427424687e-06 0)
(0.000327793939355 4.79008616603e-06 0)
(0.000324326523756 4.39495079513e-06 0)
(0.00032114389603 4.02700352589e-06 0)
(0.000318226362112 3.68472339836e-06 0)
(0.000315555196266 3.36698051299e-06 0)
(0.000313112371141 3.07310090093e-06 0)
(0.000310880250344 2.80295422143e-06 0)
(0.00030884123639 2.55707077688e-06 0)
(0.000306977368502 2.33679513881e-06 0)
(0.000305269870418 2.14448382477e-06 0)
(0.000303698661616 1.98375166877e-06 0)
(0.000302241874074 1.85976154056e-06 0)
(0.000300875474895 1.77952223035e-06 0)
(0.000299573209807 1.7520783175e-06 0)
(0.000298307301011 1.78825613032e-06 0)
(0.000297050721383 1.89902096081e-06 0)
(0.000295782490081 2.08972986179e-06 0)
(0.000294497164745 2.34175296205e-06 0)
(0.000293211982998 2.55846991312e-06 0)
(0.0012219234883 0.000221239527176 0)
(0.00125337064467 0.00038266942686 0)
(0.0012510179656 0.000396143573312 0)
(0.00121330148156 0.000356299533117 0)
(0.00115524592119 0.000304481169389 0)
(0.00108925590714 0.000255188197282 0)
(0.00102280548945 0.000212575454085 0)
(0.000959855622989 0.000177059665021 0)
(0.000902231671121 0.000147846745637 0)
(0.000850553903689 0.000123875308107 0)
(0.000804802265438 0.00010414579587 0)
(0.00076464247141 8.78139401712e-05 0)
(0.000729607777312 7.41977204141e-05 0)
(0.000699196724043 6.27563734838e-05 0)
(0.000672923147628 5.30637499552e-05 0)
(0.000650339642184 4.47838187542e-05 0)
(0.000631046615661 3.76504409638e-05 0)
(0.000614693795399 3.1451435918e-05 0)
(0.000600978002835 2.60163004134e-05 0)
(0.000589639288225 2.1206831868e-05 0)
(0.000580456541082 1.69099860418e-05 0)
(0.0005732431472 1.30324283069e-05 0)
(0.000567842962138 9.4963602321e-06 0)
(0.000564126707887 6.23630647267e-06 0)
(0.000561988813228 3.19662692515e-06 0)
(0.000561344674826 3.29580940501e-07 0)
(0.000562128295477 -2.40618435571e-06 0)
(0.000564290246261 -5.0468079123e-06 0)
(0.000567795901539 -7.62413609871e-06 0)
(0.00057262389594 -1.01664318088e-05 0)
(0.000578764749345 -1.26989012375e-05 0)
(0.000586219609022 -1.52440627847e-05 0)
(0.00059499905822 -1.78219720374e-05 0)
(0.00060512193928 -2.04503080119e-05 0)
(0.000616614136906 -2.31443201994e-05 0)
(0.000629507263828 -2.59166299638e-05 0)
(0.000643837186902 -2.87768769133e-05 0)
(0.000659642327309 -3.17311979559e-05 0)
(0.000676961664707 -3.47815281368e-05 0)
(0.000695832373247 -3.7924715507e-05 0)
(0.000716287018989 -4.11514524088e-05 0)
(0.000738350255746 -4.44450405854e-05 0)
(0.000762034972767 -4.77800331244e-05 0)
(0.000787337876288 -5.11208296021e-05 0)
(0.000814234531478 -5.44203458122e-05 0)
(0.000842673954563 -5.76189290172e-05 0)
(0.00087257292801 -6.06437409674e-05 0)
(0.000903810311826 -6.34088674137e-05 0)
(0.000936221732907 -6.58164219109e-05 0)
(0.000969595136154 -6.77588702973e-05 0)
(0.00100366775288 -6.91227016583e-05 0)
(0.00103812505781 -6.97934090654e-05 0)
(0.00107260222428 -6.96615488971e-05 0)
(0.00110668844166 -6.86294644258e-05 0)
(0.00113993424738 -6.66181473114e-05 0)
(0.00117186178586 -6.35736971326e-05 0)
(0.00120197768296 -5.94729142305e-05 0)
(0.00122978804397 -5.43276615159e-05 0)
(0.00125481494421 -4.81876981407e-05 0)
(0.00127661366353 -4.11416865319e-05 0)
(0.00129478979559 -3.33160112452e-05 0)
(0.00130901521485 -2.48709363697e-05 0)
(0.0013190416882 -1.59935687774e-05 0)
(0.00132471071672 -6.88735145465e-06 0)
(0.00132595819113 2.24129694116e-06 0)
(0.0013228129535 1.11971664447e-05 0)
(0.0013153894964 1.98081215264e-05 0)
(0.00130387638148 2.79320316457e-05 0)
(0.00128852279725 3.54578840869e-05 0)
(0.0012696255639 4.2302324333e-05 0)
(0.00124751798418 4.84041795223e-05 0)
(0.00122256082289 5.37193842732e-05 0)
(0.00119513490034 5.82177317329e-05 0)
(0.00116563447276 6.18817705459e-05 0)
(0.00113446064851 6.47073826731e-05 0)
(0.00110201437904 6.67051948592e-05 0)
(0.00106868892321 6.79019122028e-05 0)
(0.00103486201664 6.83408143257e-05 0)
(0.0010008882219 6.80809366714e-05 0)
(0.000967092052683 6.7194810197e-05 0)
(0.000933762439463 6.57649738417e-05 0)
(0.000901148953748 6.38797301023e-05 0)
(0.000869459980814 6.16287243115e-05 0)
(0.000838862790729 5.90988900794e-05 0)
(0.000809485259853 5.63711542545e-05 0)
(0.000781418871172 5.35181026419e-05 0)
(0.000754722576678 5.06026271549e-05 0)
(0.000729427123852 4.7677444798e-05 0)
(0.000705539508552 4.47853056577e-05 0)
(0.000683047295442 4.19596865914e-05 0)
(0.00066192262768 3.92257807564e-05 0)
(0.000642125818909 3.66016272207e-05 0)
(0.000623608478011 3.40992639524e-05 0)
(0.000606316159285 3.1725825914e-05 0)
(0.000590190559384 2.94845409916e-05 0)
(0.00057517129969 2.73756011309e-05 0)
(0.00056119734172 2.53969024112e-05 0)
(0.00054820808594 2.35446591719e-05 0)
(0.000536144203199 2.18139031449e-05 0)
(0.000524948244358 2.01988819902e-05 0)
(0.0005145650688 1.86933721123e-05 0)
(0.000504942127086 1.72909204978e-05 0)
(0.000496029627609 1.59850288135e-05 0)
(0.000487780612004 1.4769291742e-05 0)
(0.000480150959426 1.36374997241e-05 0)
(0.000473099335669 1.2583714984e-05 0)
(0.0004665870995 1.16023282704e-05 0)
(0.000460578175449 1.06881027932e-05 0)
(0.000455038899593 9.83621095005e-06 0)
(0.000449937842541 9.04226890524e-06 0)
(0.000445245611807 8.30237375177e-06 0)
(0.000440934634039 7.61314784963e-06 0)
(0.000436978916199 6.97179507902e-06 0)
(0.000433353783723 6.37617387523e-06 0)
(0.000430035593304 5.8248922853e-06 0)
(0.000427001418405 5.31743019894e-06 0)
(0.000424228707744 4.85429351894e-06 0)
(0.00042169492179 4.43720274092e-06 0)
(0.000419377161777 4.06931317355e-06 0)
(0.000417251822958 3.75545109767e-06 0)
(0.000415294333675 3.50232235811e-06 0)
(0.000413479091643 3.31858828101e-06 0)
(0.000411779787555 3.21456931059e-06 0)
(0.000410170417722 3.20103378912e-06 0)
(0.00040862740157 3.2858311811e-06 0)
(0.000407133087371 3.46545932184e-06 0)
(0.000405679394889 3.70503749914e-06 0)
(0.000404263173079 3.89658681545e-06 0)
(0.0012169253723 0.000182390664536 0)
(0.00124905354807 0.000357942948076 0)
(0.00126559205903 0.000406684205566 0)
(0.00125573062204 0.000393336806722 0)
(0.00122524751927 0.000355982543075 0)
(0.00118245465355 0.000312469687324 0)
(0.00113390285476 0.000270296164833 0)
(0.00108396788247 0.000232223777954 0)
(0.00103533745411 0.000198936998624 0)
(0.000989542707687 0.000170257555503 0)
(0.000947366738126 0.000145691143755 0)
(0.000909127134201 0.00012466797874 0)
(0.000874862439197 0.000106643060574 0)
(0.000844451930244 9.11325863876e-05 0)
(0.000817691037925 7.77219979221e-05 0)
(0.000794337931344 6.60621763124e-05 0)
(0.000774141640125 5.58613960653e-05 0)
(0.000756858492519 4.68764450615e-05 0)
(0.000742261242495 3.8904331713e-05 0)
(0.000730143681235 3.17750757775e-05 0)
(0.000720322507499 2.53456638199e-05 0)
(0.000712637575649 1.94950785065e-05 0)
(0.000706951221219 1.41202531567e-05 0)
(0.000703147096986 9.13279698491e-06 0)
(0.00070112878285 4.45635139221e-06 0)
(0.000700818325024 2.44600202315e-08 0)
(0.000702154790085 -4.22114081325e-06 0)
(0.000705092875116 -8.33187804326e-06 0)
(0.000709601593256 -1.23534294053e-05 0)
(0.000715663031287 -1.63265603375e-05 0)
(0.000723271158614 -2.02877423696e-05 0)
(0.000732430662356 -2.42695736611e-05 0)
(0.000743155775098 -2.83010114772e-05 0)
(0.000755469055118 -3.24074179244e-05 0)
(0.000769400072532 -3.66104135826e-05 0)
(0.000784983948537 -4.09275278004e-05 0)
(0.000802259688761 -4.5371630726e-05 0)
(0.000821268246062 -4.99501302344e-05 0)
(0.000842050243474 -5.4663919009e-05 0)
(0.000864643285687 -5.95060635561e-05 0)
(0.000889078788898 -6.44602411189e-05 0)
(0.000915378266555 -6.94989534824e-05 0)
(0.000943549025235 -7.45815821979e-05 0)
(0.000973579254414 -7.96523982054e-05 0)
(0.00100543254006 -8.46387013085e-05 0)
(0.00103904189858 -8.94493362166e-05 0)
(0.00107430351661 -9.39739036768e-05 0)
(0.00111107049192 -9.80830391081e-05 0)
(0.00114914699325 -0.000101630144315 0)
(0.00118828337575 -0.000104454901338 0)
(0.00122817287682 -0.000106388751842 0)
(0.00126845054318 -0.00010726228925 0)
(0.00130869497385 -0.000106914220743 0)
(0.00134843329504 -0.000105201282305 0)
(0.00138714953103 -0.000102008319408 0)
(0.00142429625162 -9.72577307181e-05 0)
(0.00145930912023 -9.09175929576e-05 0)
(0.00149162377511 -8.30079473054e-05 0)
(0.0015206943428 -7.36048332013e-05 0)
(0.00154601277617 -6.28416637733e-05 0)
(0.00156712810248 -5.0907461e-05 0)
(0.00158366452594 -3.8041309012e-05 0)
(0.00159533709184 -2.45222276704e-05 0)
(0.00160196328162 -1.06539167108e-05 0)
(0.00160346872345 3.25492621833e-06 0)
(0.00159988568582 1.69117791072e-05 0)
(0.00159134446193 3.00581438e-05 0)
(0.00157805961369 4.24799151251e-05 0)
(0.00156031421217 5.40089193421e-05 0)
(0.00153844499165 6.45176683026e-05 0)
(0.00151283001892 7.39113078505e-05 0)
(0.00148387899489 8.21203575971e-05 0)
(0.00145202536717 8.90962233464e-05 0)
(0.0014177191659 9.48098223291e-05 0)
(0.00138141966692 9.92525697906e-05 0)
(0.0013435873836 0.000102438478301 0)
(0.00130467532545 0.000104406063295 0)
(0.00126511984408 0.000105218974996 0)
(0.00122533166056 0.000104964681592 0)
(0.00118568779363 0.000103751032307 0)
(0.00114652506558 0.000101701027271 0)
(0.00110813567139 9.89464939189e-05 0)
(0.00107076501726 9.56215275513e-05 0)
(0.00103461174763 9.18564887266e-05 0)
(0.000999829652123 8.77731258297e-05 0)
(0.000966531010433 8.3481106456e-05 0)
(0.000934790893549 7.90759804797e-05 0)
(0.000904651972727 7.46384112416e-05 0)
(0.000876129463316 7.02344101032e-05 0)
(0.000849215922715 6.59162818616e-05 0)
(0.000823885711879 6.17240097704e-05 0)
(0.000800099007227 5.76868569194e-05 0)
(0.000777805310666 5.38250165994e-05 0)
(0.000756946449553 5.01511976365e-05 0)
(0.000737459088052 4.66720749471e-05 0)
(0.000719276789281 4.33895697979e-05 0)
(0.000702331676997 4.03019482034e-05 0)
(0.000686555748723 3.74047418738e-05 0)
(0.000671881891382 3.46915053993e-05 0)
(0.000658244647159 3.21544283112e-05 0)
(0.000645580772608 2.97848222508e-05 0)
(0.000633829628721 2.75735033453e-05 0)
(0.000622933434338 2.55110884344e-05 0)
(0.000612837410097 2.3588221971e-05 0)
(0.000603489835444 2.17957482828e-05 0)
(0.000594842036941 2.01248419371e-05 0)
(0.000586848322389 1.85671071126e-05 0)
(0.000579465872011 1.71146553843e-05 0)
(0.000572654595173 1.57601700801e-05 0)
(0.000566376958691 1.44969644315e-05 0)
(0.000560597790855 1.33190400764e-05 0)
(0.00055528406363 1.22211519985e-05 0)
(0.000550404654403 1.11988857059e-05 0)
(0.000545930087967 1.02487521113e-05 0)
(0.000541832259517 9.36830511094e-06 0)
(0.000538084140547 8.5562856576e-06 0)
(0.000534659472171 7.81279370347e-06 0)
(0.00053153245533 7.13948410346e-06 0)
(0.000528677455761 6.53977223411e-06 0)
(0.000526068754948 6.01901453928e-06 0)
(0.00052368039843 5.5845895587e-06 0)
(0.000521486220991 5.24572731835e-06 0)
(0.000519460161885 5.01278212167e-06 0)
(0.000517577005044 4.89533814806e-06 0)
(0.000515813615742 4.89792462411e-06 0)
(0.000514150330898 5.01095927868e-06 0)
(0.000512570557214 5.19300011331e-06 0)
(0.000511052996976 5.34240434179e-06 0)
(0.0012128388711 0.000152626417543 0)
(0.00124169471003 0.000326723167602 0)
(0.00126573165007 0.000397328516726 0)
(0.00127201870952 0.000406266854486 0)
(0.00126081424152 0.000384740046814 0)
(0.00123675822648 0.000350561044886 0)
(0.00120468592319 0.000312828890231 0)
(0.00116842840801 0.00027588352152 0)
(0.00113071973154 0.000241616342124 0)
(0.00109339939494 0.000210693278074 0)
(0.00105764604678 0.00018318472287 0)
(0.001024172747 0.00015888728829 0)
(0.000993374218039 0.000137486961042 0)
(0.000965432954767 0.000118640445373 0)
(0.00094039382843 0.000102014146076 0)
(0.000918215704394 8.73012485816e-05 0)
(0.000898806705156 7.42276054365e-05 0)
(0.000882048009335 6.25520717218e-05 0)
(0.000867809695597 5.20642628605e-05 0)
(0.000855961109457 4.25812875251e-05 0)
(0.000846377485035 3.39442471631e-05 0)
(0.000838944024065 2.60148863241e-05 0)
(0.000833558261892 1.86725616433e-05 0)
(0.00083013129013 1.18115854906e-05 0)
(0.000828588224605 5.33894475711e-06 0)
(0.000828868181529 -8.27629117075e-07 0)
(0.000830923934069 -6.76126495036e-06 0)
(0.000834721363489 -1.25272631531e-05 0)
(0.000840238781259 -1.81841742569e-05 0)
(0.000847466159377 -2.37846250809e-05 0)
(0.000856404282099 -2.93759206541e-05 0)
(0.000867063819933 -3.50004296e-05 0)
(0.000879464312258 -4.06957530456e-05 0)
(0.000893633033396 -4.64946698541e-05 0)
(0.000909603707005 -5.24248450031e-05 0)
(0.000927415024682 -5.85082824295e-05 0)
(0.000947108916405 -6.47605004685e-05 0)
(0.000968728513079 -7.11894069198e-05 0)
(0.00099231573547 -7.77938545305e-05 0)
(0.00101790844005 -8.45618670484e-05 0)
(0.00104553705233 -9.14685449562e-05 0)
(0.00107522062413 -9.84736902979e-05 0)
(0.00110696226609 -0.000105519236261 0)
(0.00114074393425 -0.000112526630384 0)
(0.00117652059439 -0.000119394402042 0)
(0.00121421385486 -0.000125996239341 0)
(0.00125370525161 -0.000132179997422 0)
(0.00129482948816 -0.000137768136019 0)
(0.0013373680723 -0.000142560107888 0)
(0.00138104393249 -0.000146337151205 0)
(0.00142551771057 -0.000148869747261 0)
(0.00147038647217 -0.000149927683123 0)
(0.0015151855114 -0.000149292253342 0)
(0.00155939373322 -0.000146769744865 0)
(0.00160244279726 -0.000142205105361 0)
(0.00164372986848 -0.000135494682566 0)
(0.00168263352858 -0.000126597114962 0)
(0.00171853220751 -0.000115541705523 0)
(0.00175082438047 -0.000102433765751 0)
(0.00177894969176 -8.74564323857e-05 0)
(0.00180241008323 -7.08683756879e-05 0)
(0.00182078988788 -5.29965993314e-05 0)
(0.00183377357575 -3.4223181261e-05 0)
(0.00184115929503 -1.49648766739e-05 0)
(0.00184286583597 4.3538841709e-06 0)
(0.00183893100707 2.33306540958e-05 0)
(0.00182950128201 4.16101708775e-05 0)
(0.00181481524375 5.88987160032e-05 0)
(0.00179518504147 7.49656540844e-05 0)
(0.00177097964953 8.96354704768e-05 0)
(0.00174261173487 0.000102776312509 0)
(0.00171052790708 0.000114290121327 0)
(0.0016752010287 0.000124106881323 0)
(0.00163712311406 0.000132183196429 0)
(0.00159679772251 0.0001385040041 0)
(0.0015547313008 0.000143085669486 0)
(0.00151142346473 0.000145978689963 0)
(0.00146735665444 0.000147268567171 0)
(0.00142298590853 0.000147073949763 0)
(0.0013787296399 0.000145541834326 0)
(0.00133496223154 0.000142840299783 0)
(0.00129200902346 0.000139149764932 0)
(0.00125014391163 0.000134653966453 0)
(0.00120958943109 0.000129531746143 0)
(0.00117051893289 0.000123950409944 0)
(0.00113306032397 0.000118061021954 0)
(0.00109730081384 0.000111995641731 0)
(0.00106329216738 0.00010586626736 0)
(0.00103105606138 9.9765119529e-05 0)
(0.00100058925202 9.37658723442e-05 0)
(0.000971868361442 8.79254703005e-05 0)
(0.000944854174633 8.22862370349e-05 0)
(0.00091949540022 7.68780562087e-05 0)
(0.000895731892907 7.17204748144e-05 0)
(0.000873497363419 6.68246368242e-05 0)