/*--------------------------------*- C++ -*----------------------------------*\
  =========                 |
  \\      /  F ield         | OpenFOAM: The Open Source CFD Toolbox
   \\    /   O peration     | Website:  https://openfoam.org
    \\  /    A nd           | Version:  7
     \\/     M anipulation  |
\*---------------------------------------------------------------------------*/
FoamFile
{
    version     2.0;
    format      ascii;
    class       volScalarField;
    location    "2700";
    object      Ci;
}
// * * * * * * * * * * * * * * * * * * * * * * * * * * * * * * * * * * * * * //

dimensions      [0 -3 0 0 1 0 0];

internalField   nonuniform List<scalar> 
8192
(
9.99999999911
10.0000000031
10.0000000093
10.0000000173
10.0000000274
10.0000000396
10.0000000542
10.000000071
10.0000000896
10.0000001097
10.000000131
10.0000001531
10.0000001758
10.000000199
10.0000002223
10.0000002458
10.0000002693
10.0000002925
10.0000003155
10.0000003383
10.0000003607
10.0000003824
10.0000004034
10.0000004234
10.0000004423
10.0000004599
10.000000476
10.0000004906
10.0000005036
10.000000515
10.0000005248
10.000000533
10.0000005396
10.0000005448
10.0000005486
10.0000005512
10.0000005526
10.0000005526
10.0000005513
10.0000005486
10.0000005446
10.0000005394
10.0000005336
10.0000005274
10.0000005215
10.0000005163
10.0000005126
10.0000005109
10.0000005121
10.0000005165
10.0000005247
10.0000005369
10.0000005535
10.0000005743
10.0000005994
10.0000006283
10.0000006605
10.0000006955
10.0000007328
10.0000007716
10.0000008115
10.0000008519
10.0000008925
10.000000933
10.0000009733
10.0000010134
10.0000010533
10.000001093
10.0000011328
10.0000011727
10.000001213
10.0000012539
10.0000012957
10.0000013385
10.0000013827
10.0000014284
10.0000014758
10.0000015249
10.000001576
10.0000016287
10.0000016832
10.0000017391
10.0000017963
10.0000018545
10.0000019134
10.0000019727
10.0000020323
10.0000020917
10.000002151
10.00000221
10.0000022691
10.0000023291
10.0000023914
10.0000024563
10.000002524
10.0000025943
10.0000026673
10.0000027429
10.000002821
10.0000029016
10.0000029847
10.0000030703
10.0000031584
10.0000032491
10.0000033423
10.000003438
10.0000035364
10.0000036372
10.0000037404
10.0000038461
10.0000039541
10.0000040643
10.0000041766
10.0000042908
10.0000044067
10.0000045241
10.0000046428
10.0000047625
10.0000048832
10.0000050045
10.0000051262
10.0000052482
10.0000053702
10.0000054914
10.0000056105
10.0000057244
10.0000058255
10.000005894
10.0000000002
10.0000000052
10.0000000115
10.0000000192
10.0000000293
10.0000000414
10.0000000557
10.0000000719
10.0000000897
10.000000109
10.0000001296
10.0000001511
10.0000001735
10.0000001965
10.0000002199
10.0000002436
10.0000002675
10.0000002913
10.000000315
10.0000003387
10.0000003623
10.0000003854
10.0000004078
10.0000004294
10.0000004499
10.0000004692
10.0000004872
10.0000005039
10.0000005191
10.0000005329
10.0000005453
10.0000005562
10.0000005659
10.0000005742
10.0000005814
10.0000005876
10.0000005929
10.0000005968
10.0000005994
10.0000006005
10.0000006002
10.0000005987
10.0000005964
10.0000005938
10.0000005913
10.0000005897
10.0000005897
10.0000005918
10.0000005967
10.000000605
10.0000006169
10.0000006327
10.0000006525
10.0000006759
10.0000007027
10.0000007322
10.000000764
10.0000007973
10.0000008315
10.0000008659
10.0000009002
10.0000009337
10.0000009665
10.000000998
10.0000010286
10.0000010582
10.0000010872
10.0000011157
10.0000011443
10.0000011733
10.0000012034
10.0000012349
10.0000012682
10.0000013037
10.0000013419
10.0000013827
10.0000014265
10.0000014731
10.0000015226
10.0000015748
10.0000016293
10.0000016859
10.0000017443
10.0000018039
10.0000018645
10.0000019256
10.0000019871
10.0000020485
10.0000021098
10.0000021709
10.0000022319
10.0000022942
10.0000023603
10.0000024294
10.0000025011
10.0000025754
10.0000026522
10.0000027313
10.0000028127
10.0000028965
10.0000029827
10.0000030713
10.0000031622
10.0000032556
10.0000033514
10.0000034496
10.0000035503
10.0000036534
10.0000037588
10.0000038666
10.0000039765
10.0000040885
10.0000042025
10.0000043182
10.0000044356
10.0000045543
10.0000046742
10.000004795
10.0000049166
10.0000050387
10.0000051611
10.0000052836
10.000005406
10.0000055278
10.0000056483
10.0000057651
10.0000058757
10.0000059568
10.0000000003
10.0000000059
10.0000000125
10.0000000203
10.0000000298
10.0000000412
10.0000000547
10.0000000704
10.000000088
10.0000001076
10.0000001289
10.0000001517
10.0000001758
10.0000002009
10.0000002269
10.0000002536
10.0000002806
10.0000003078
10.000000335
10.0000003621
10.0000003889
10.0000004154
10.0000004413
10.0000004666
10.0000004911
10.0000005148
10.0000005375
10.0000005593
10.0000005802
10.0000006001
10.0000006191
10.0000006373
10.0000006547
10.0000006714
10.0000006875
10.0000007033
10.0000007188
10.0000007339
10.0000007489
10.0000007639
10.0000007791
10.0000007948
10.0000008115
10.0000008293
10.0000008488
10.0000008702
10.0000008937
10.0000009194
10.0000009474
10.0000009775
10.0000010096
10.000001043
10.0000010774
10.0000011119
10.000001146
10.0000011786
10.0000012093
10.0000012369
10.0000012613
10.0000012815
10.0000012974
10.0000013086
10.0000013152
10.0000013173
10.0000013153
10.0000013097
10.0000013014
10.0000012913
10.0000012806
10.0000012704
10.000001262
10.0000012564
10.000001255
10.0000012584
10.0000012678
10.0000012835
10.0000013062
10.000001336
10.0000013729
10.0000014167
10.0000014671
10.0000015234
10.000001585
10.0000016512
10.0000017213
10.0000017944
10.0000018701
10.0000019475
10.0000020262
10.0000021057
10.0000021857
10.0000022662
10.0000023479
10.0000024311
10.0000025158
10.0000026022
10.0000026903
10.00000278
10.0000028717
10.0000029651
10.0000030606
10.000003158
10.0000032575
10.000003359
10.0000034627
10.0000035685
10.0000036764
10.0000037863
10.0000038983
10.0000040122
10.0000041279
10.0000042452
10.0000043641
10.0000044844
10.0000046058
10.0000047281
10.0000048511
10.0000049746
10.0000050983
10.000005222
10.0000053454
10.0000054685
10.0000055908
10.000005712
10.000005832
10.0000059476
10.0000060666
10.0000061367
10.0000000001
10.0000000063
10.0000000134
10.0000000216
10.0000000314
10.0000000428
10.0000000559
10.000000071
10.0000000885
10.0000001082
10.0000001301
10.0000001542
10.0000001803
10.0000002081
10.0000002374
10.0000002678
10.000000299
10.0000003308
10.0000003629
10.0000003951
10.0000004272
10.0000004591
10.0000004907
10.0000005219
10.0000005529
10.0000005835
10.0000006139
10.000000644
10.0000006741
10.0000007043
10.0000007346
10.0000007653
10.0000007965
10.0000008283
10.000000861
10.0000008948
10.0000009298
10.0000009661
10.0000010039
10.0000010433
10.0000010846
10.0000011277
10.0000011729
10.0000012201
10.0000012693
10.0000013204
10.0000013731
10.0000014271
10.000001482
10.0000015372
10.000001592
10.0000016457
10.0000016975
10.0000017464
10.0000017916
10.0000018321
10.0000018671
10.0000018957
10.0000019173
10.0000019311
10.0000019368
10.0000019339
10.0000019223
10.0000019022
10.000001874
10.0000018381
10.0000017958
10.000001748
10.0000016963
10.0000016423
10.0000015878
10.0000015345
10.0000014843
10.0000014388
10.0000013998
10.0000013686
10.0000013466
10.0000013346
10.0000013334
10.0000013433
10.0000013643
10.0000013961
10.0000014384
10.0000014903
10.0000015513
10.0000016202
10.0000016963
10.0000017785
10.0000018661
10.0000019582
10.0000020541
10.0000021532
10.000002255
10.0000023594
10.000002466
10.0000025748
10.0000026856
10.0000027982
10.0000029126
10.0000030288
10.0000031467
10.0000032663
10.0000033874
10.0000035101
10.0000036343
10.0000037599
10.0000038868
10.0000040149
10.0000041441
10.0000042742
10.000004405
10.0000045364
10.0000046682
10.0000048002
10.0000049321
10.0000050638
10.0000051948
10.0000053251
10.0000054544
10.0000055824
10.0000057089
10.0000058337
10.0000059567
10.0000060768
10.0000061964
10.0000063054
10.0000064377
10.0000064501
10.0000000002
10.0000000071
10.0000000151
10.000000024
10.0000000343
10.000000046
10.0000000594
10.0000000744
10.0000000916
10.0000001112
10.0000001333
10.0000001578
10.0000001846
10.0000002135
10.0000002442
10.0000002764
10.0000003098
10.0000003441
10.000000379
10.0000004144
10.00000045
10.0000004858
10.0000005218
10.000000558
10.0000005946
10.0000006315
10.0000006691
10.0000007075
10.0000007469
10.0000007876
10.0000008298
10.0000008737
10.0000009196
10.0000009677
10.0000010182
10.0000010712
10.0000011269
10.0000011853
10.0000012465
10.0000013106
10.0000013775
10.000001447
10.0000015191
10.0000015934
10.0000016696
10.0000017473
10.000001826
10.000001905
10.0000019837
10.0000020611
10.0000021366
10.000002209
10.0000022776
10.0000023414
10.0000023994
10.0000024507
10.0000024946
10.0000025301
10.0000025567
10.0000025737
10.0000025806
10.0000025771
10.0000025628
10.0000025377
10.0000025019
10.0000024558
10.0000024001
10.0000023357
10.0000022638
10.0000021859
10.0000021036
10.0000020187
10.0000019332
10.000001849
10.0000017683
10.000001693
10.0000016252
10.0000015666
10.0000015188
10.000001483
10.0000014601
10.0000014506
10.0000014549
10.0000014728
10.0000015041
10.0000015481
10.0000016041
10.0000016715
10.0000017491
10.0000018362
10.0000019318
10.000002035
10.0000021449
10.0000022608
10.0000023821
10.000002508
10.0000026381
10.0000027719
10.0000029088
10.0000030486
10.0000031909
10.0000033353
10.0000034816
10.0000036293
10.0000037783
10.0000039281
10.0000040786
10.0000042294
10.0000043803
10.0000045309
10.000004681
10.0000048302
10.0000049783
10.0000051249
10.0000052699
10.0000054128
10.0000055535
10.0000056917
10.0000058272
10.0000059596
10.0000060889
10.0000062146
10.0000063376
10.0000064546
10.0000065737
10.0000066704
10.0000068181
10.0000067841
10.0000000002
10.0000000078
10.0000000166
10.0000000263
10.0000000373
10.0000000496
10.0000000636
10.0000000794
10.0000000969
10.0000001166
10.0000001387
10.0000001631
10.0000001898
10.0000002185
10.0000002489
10.0000002807
10.0000003138
10.0000003479
10.0000003827
10.0000004182
10.0000004543
10.0000004911
10.0000005286
10.0000005671
10.0000006066
10.0000006476
10.0000006902
10.0000007347
10.0000007816
10.000000831
10.0000008833
10.0000009387
10.0000009975
10.0000010599
10.0000011259
10.0000011957
10.0000012693
10.0000013466
10.0000014275
10.0000015118
10.0000015993
10.0000016895
10.0000017821
10.0000018765
10.0000019722
10.0000020682
10.000002164
10.0000022587
10.0000023514
10.0000024411
10.0000025269
10.0000026081
10.0000026836
10.0000027528
10.0000028151
10.0000028696
10.0000029161
10.0000029541
10.0000029831
10.000003003
10.0000030133
10.0000030138
10.0000030044
10.0000029847
10.0000029547
10.0000029144
10.0000028641
10.0000028043
10.0000027357
10.000002659
10.0000025755
10.0000024864
10.0000023931
10.0000022972
10.0000022007
10.0000021055
10.0000020136
10.0000019271
10.0000018482
10.0000017784
10.0000017197
10.0000016733
10.0000016403
10.0000016216
10.0000016177
10.0000016286
10.0000016544
10.0000016948
10.0000017492
10.0000018171
10.0000018976
10.00000199
10.0000020933
10.0000022067
10.0000023291
10.0000024598
10.0000025978
10.0000027423
10.0000028924
10.0000030474
10.0000032066
10.0000033692
10.0000035346
10.000003702
10.000003871
10.0000040408
10.0000042109
10.0000043808
10.0000045499
10.0000047178
10.0000048838
10.0000050477
10.0000052089
10.0000053671
10.0000055219
10.0000056729
10.0000058199
10.0000059625
10.0000061006
10.0000062339
10.0000063625
10.0000064853
10.0000066049
10.0000067147
10.0000068308
10.0000069115
10.000007065
10.000007009
10.0000000003
10.0000000084
10.0000000181
10.0000000286
10.0000000401
10.000000053
10.0000000675
10.000000084
10.0000001025
10.0000001227
10.000000145
10.0000001694
10.0000001957
10.0000002236
10.000000253
10.0000002836
10.0000003151
10.0000003475
10.0000003806
10.0000004146
10.0000004494
10.0000004854
10.0000005227
10.0000005616
10.0000006025
10.0000006458
10.0000006917
10.0000007409
10.0000007935
10.0000008499
10.0000009103
10.0000009751
10.0000010442
10.000001118
10.0000011962
10.0000012788
10.0000013659
10.0000014568
10.0000015516
10.0000016494
10.0000017502
10.0000018529
10.0000019572
10.0000020619
10.0000021667
10.0000022702
10.0000023719
10.0000024706
10.0000025656
10.000002656
10.000002741
10.0000028201
10.0000028926
10.0000029582
10.0000030166
10.0000030677
10.0000031112
10.0000031473
10.0000031757
10.0000031966
10.0000032097
10.0000032149
10.0000032119
10.0000032005
10.0000031804
10.0000031514
10.0000031136
10.0000030671
10.0000030123
10.0000029496
10.0000028797
10.0000028032
10.0000027212
10.0000026345
10.0000025447
10.000002453
10.0000023612
10.0000022711
10.0000021845
10.0000021035
10.0000020297
10.000001965
10.000001911
10.000001869
10.0000018401
10.0000018253
10.0000018251
10.0000018399
10.0000018699
10.0000019149
10.0000019746
10.0000020486
10.0000021362
10.0000022366
10.000002349
10.0000024725
10.000002606
10.0000027487
10.0000028994
10.0000030572
10.0000032209
10.0000033897
10.0000035624
10.0000037382
10.000003916
10.0000040951
10.0000042744
10.0000044533
10.0000046309
10.0000048065
10.0000049795
10.0000051491
10.0000053149
10.0000054764
10.000005633
10.0000057843
10.0000059301
10.00000607
10.0000062038
10.0000063313
10.0000064529
10.000006567
10.0000066775
10.0000067753
10.0000068821
10.0000069471
10.0000070891
10.0000070352
10.0000000002
10.0000000087
10.000000019
10.0000000303
10.0000000424
10.0000000558
10.000000071
10.0000000882
10.0000001076
10.0000001289
10.0000001517
10.0000001762
10.0000002024
10.0000002298
10.0000002582
10.0000002874
10.0000003173
10.0000003478
10.0000003791
10.0000004113
10.0000004447
10.0000004796
10.0000005164
10.0000005556
10.0000005975
10.0000006427
10.0000006915
10.0000007446
10.0000008018
10.000000864
10.0000009308
10.0000010029
10.0000010797
10.0000011619
10.0000012485
10.0000013398
10.0000014354
10.0000015343
10.000001637
10.0000017413
10.0000018486
10.0000019555
10.0000020641
10.0000021706
10.0000022766
10.0000023793
10.0000024793
10.0000025749
10.0000026658
10.0000027512
10.0000028308
10.0000029043
10.0000029713
10.0000030319
10.0000030861
10.000003134
10.0000031756
10.0000032112
10.0000032406
10.0000032639
10.0000032809
10.0000032914
10.000003295
10.0000032912
10.0000032798
10.0000032605
10.0000032332
10.0000031981
10.0000031553
10.0000031053
10.0000030487
10.0000029859
10.0000029177
10.0000028448
10.0000027681
10.0000026886
10.0000026076
10.0000025266
10.0000024469
10.0000023701
10.000002298
10.000002232
10.0000021739
10.0000021249
10.0000020865
10.0000020598
10.0000020459
10.0000020455
10.0000020591
10.0000020872
10.0000021298
10.0000021869
10.0000022582
10.0000023431
10.0000024412
10.0000025516
10.0000026734
10.0000028058
10.0000029475
10.0000030976
10.0000032548
10.000003418
10.0000035861
10.0000037579
10.0000039322
10.0000041079
10.000004284
10.0000044595
10.0000046334
10.0000048048
10.0000049729
10.0000051369
10.0000052963
10.0000054503
10.0000055984
10.0000057403
10.0000058756
10.000006004
10.0000061254
10.0000062394
10.0000063468
10.0000064458
10.0000065407
10.0000066224
10.000006712
10.0000067637
10.0000068775
10.0000068425
10.0000000003
10.0000000092
10.00000002
10.0000000318
10.0000000444
10.0000000582
10.0000000737
10.0000000915
10.0000001117
10.000000134
10.0000001578
10.0000001827
10.000000209
10.0000002361
10.0000002639
10.0000002921
10.0000003206
10.0000003497
10.0000003794
10.0000004103
10.0000004425
10.0000004768
10.0000005134
10.0000005532
10.0000005961
10.0000006435
10.0000006947
10.0000007514
10.0000008122
10.0000008794
10.0000009505
10.0000010286
10.0000011101
10.0000011983
10.0000012897
10.0000013863
10.0000014863
10.0000015887
10.0000016955
10.0000018007
10.0000019113
10.0000020165
10.0000021269
10.0000022296
10.0000023356
10.0000024336
10.0000025314
10.0000026223
10.0000027098
10.0000027913
10.0000028678
10.0000029387
10.0000030042
10.0000030643
10.0000031191
10.0000031688
10.0000032134
10.000003253
10.0000032875
10.0000033166
10.00000334
10.0000033573
10.0000033678
10.0000033709
10.0000033663
10.0000033534
10.0000033323
10.000003303
10.000003266
10.0000032218
10.0000031712
10.0000031149
10.0000030534
10.0000029877
10.0000029186
10.0000028471
10.0000027743
10.0000027014
10.0000026296
10.0000025604
10.000002495
10.0000024347
10.0000023809
10.0000023347
10.0000022974
10.00000227
10.0000022535
10.0000022487
10.0000022564
10.000002277
10.0000023107
10.0000023579
10.0000024183
10.0000024917
10.0000025777
10.0000026758
10.0000027851
10.0000029048
10.0000030339
10.0000031714
10.0000033161
10.0000034669
10.0000036225
10.0000037816
10.0000039432
10.000004106
10.0000042689
10.0000044308
10.0000045907
10.0000047476
10.0000049006
10.000005049
10.000005192
10.0000053291
10.0000054597
10.0000055835
10.0000057001
10.0000058093
10.000005911
10.0000060051
10.0000060921
10.0000061711
10.000006245
10.0000063081
10.000006374
10.0000064146
10.0000064903
10.0000064795
10.0000000002
10.0000000094
10.0000000206
10.0000000328
10.0000000459
10.0000000601
10.000000076
10.0000000942
10.000000115
10.000000138
10.0000001629
10.0000001885
10.0000002152
10.0000002424
10.0000002699
10.0000002975
10.0000003251
10.0000003532
10.0000003819
10.000000412
10.0000004435
10.0000004777
10.0000005144
10.0000005552
10.0000005991
10.000000649
10.0000007019
10.0000007624
10.0000008253
10.0000008974
10.0000009706
10.0000010543
10.0000011374
10.0000012311
10.0000013237
10.0000014244
10.000001526
10.0000016294
10.0000017394
10.0000018409
10.0000019573
10.0000020537
10.0000021723
10.0000022632
10.0000023773
10.0000024642
10.0000025677
10.0000026515
10.000002742
10.0000028215
10.0000029002
10.000002973
10.000003042
10.0000031067
10.0000031671
10.0000032234
10.0000032754
10.000003323
10.0000033659
10.0000034038
10.000003436
10.0000034619
10.0000034805
10.0000034912
10.000003493
10.0000034856
10.0000034687
10.0000034424
10.0000034074
10.0000033643
10.000003314
10.0000032576
10.0000031957
10.0000031296
10.0000030597
10.0000029872
10.0000029137
10.0000028407
10.0000027698
10.0000027023
10.0000026396
10.0000025829
10.0000025331
10.0000024913
10.0000024579
10.0000024339
10.0000024199
10.0000024167
10.0000024248
10.0000024446
10.0000024764
10.0000025202
10.000002576
10.0000026436
10.0000027226
10.0000028124
10.0000029125
10.0000030218
10.0000031397
10.0000032649
10.0000033964
10.0000035331
10.0000036737
10.0000038172
10.0000039622
10.0000041077
10.0000042525
10.0000043955
10.0000045359
10.0000046725
10.0000048046
10.0000049316
10.0000050526
10.0000051672
10.000005275
10.0000053756
10.0000054687
10.0000055544
10.0000056325
10.0000057033
10.0000057668
10.0000058235
10.0000058736
10.0000059174
10.0000059571
10.0000059874
10.0000060243
10.0000060329
10.0000000002
10.0000000097
10.0000000211
10.0000000336
10.000000047
10.0000000615
10.0000000776
10.0000000961
10.0000001174
10.0000001411
10.0000001667
10.0000001933
10.0000002205
10.000000248
10.0000002755
10.0000003029
10.00000033
10.0000003576
10.0000003855
10.0000004152
10.0000004462
10.0000004807
10.0000005173
10.0000005597
10.000000604
10.0000006567
10.0000007102
10.0000007752
10.0000008381
10.0000009163
10.0000009883
10.0000010794
10.0000011598
10.0000012616
10.0000013506
10.0000014579
10.0000015577
10.0000016622
10.0000017768
10.0000018688
10.0000020015
10.0000020741
10.0000022225
10.0000022776
10.0000024298
10.000002479
10.0000026182
10.0000026752
10.0000027911
10.000002861
10.0000029543
10.0000030301
10.0000031086
10.0000031815
10.0000032512
10.0000033173
10.0000033792
10.0000034372
10.0000034908
10.0000035395
10.0000035824
10.0000036186
10.0000036469
10.0000036662
10.0000036753
10.0000036736
10.0000036605
10.0000036364
10.0000036016
10.0000035573
10.0000035041
10.0000034439
10.0000033765
10.0000033033
10.0000032254
10.0000031446
10.0000030627
10.0000029815
10.0000029032
10.0000028296
10.0000027623
10.0000027026
10.0000026516
10.0000026101
10.0000025786
10.0000025573
10.0000025465
10.0000025462
10.000002557
10.0000025789
10.0000026121
10.0000026565
10.0000027119
10.000002778
10.0000028543
10.0000029401
10.0000030348
10.0000031374
10.0000032471
10.0000033627
10.0000034833
10.0000036077
10.0000037347
10.0000038632
10.0000039921
10.0000041202
10.0000042465
10.0000043701
10.00000449
10.0000046054
10.0000047155
10.0000048198
10.0000049176
10.0000050086
10.0000050925
10.000005169
10.0000052381
10.0000052997
10.000005354
10.0000054015
10.0000054416
10.0000054766
10.0000055037
10.0000055291
10.0000055445
10.0000055642
10.0000055687
10.0000055875
10.0000000002
10.0000000099
10.0000000214
10.0000000342
10.0000000479
10.0000000626
10.0000000788
10.0000000975
10.0000001191
10.0000001433
10.0000001696
10.0000001969
10.0000002248
10.0000002529
10.0000002806
10.0000003081
10.000000335
10.0000003623
10.0000003897
10.0000004193
10.0000004498
10.000000485
10.0000005212
10.0000005654
10.0000006094
10.0000006657
10.0000007182
10.0000007889
10.0000008492
10.0000009359
10.0000010023
10.0000011053
10.0000011765
10.0000012929
10.0000013703
10.0000014918
10.0000015828
10.0000016927
10.0000018131
10.0000018871
10.0000020573
10.000002072
10.0000023034
10.0000022545
10.0000025318
10.00000245
10.0000027286
10.0000026674
10.0000028944
10.0000028917
10.0000030475
10.0000030993
10.0000032037
10.0000032806
10.0000033629
10.0000034406
10.0000035151
10.000003586
10.0000036519
10.0000037133
10.0000037691
10.0000038177
10.0000038576
10.0000038875
10.0000039061
10.000003912
10.0000039045
10.0000038834
10.0000038497
10.000003804
10.0000037483
10.0000036826
10.0000036079
10.0000035254
10.0000034364
10.000003343
10.0000032474
10.0000031522
10.00000306
10.0000029733
10.0000028942
10.0000028246
10.0000027658
10.0000027187
10.0000026836
10.0000026609
10.0000026503
10.0000026515
10.0000026642
10.0000026879
10.0000027229
10.0000027688
10.0000028252
10.0000028916
10.0000029673
10.0000030515
10.0000031434
10.0000032419
10.0000033462
10.000003455
10.0000035673
10.000003682
10.0000037978
10.0000039138
10.0000040288
10.0000041418
10.0000042518
10.0000043579
10.0000044594
10.0000045555
10.0000046456
10.0000047291
10.0000048058
10.0000048752
10.0000049374
10.000004992
10.0000050392
10.0000050793
10.0000051122
10.0000051389
10.0000051585
10.0000051744
10.000005182
10.0000051911
10.0000051868
10.0000051958
10.0000051769
10.0000051975
10.0000000002
10.00000001
10.0000000216
10.0000000344
10.0000000483
10.0000000631
10.0000000796
10.0000000983
10.00000012
10.0000001445
10.0000001713
10.0000001994
10.0000002279
10.0000002567
10.0000002848
10.0000003126
10.0000003394
10.0000003668
10.0000003937
10.0000004235
10.0000004532
10.0000004893
10.0000005247
10.0000005711
10.0000006138
10.0000006742
10.0000007241
10.000000802
10.0000008568
10.000000955
10.0000010113
10.0000011315
10.000001186
10.000001326
10.0000013809
10.0000015288
10.0000015992
10.0000017245
10.0000018482
10.0000018952
10.000002134
10.0000020304
10.0000024486
10.0000021446
10.0000027589
10.0000022883
10.0000030078
10.0000025112
10.0000031605
10.0000028106
10.0000032526
10.000003121
10.0000033554
10.0000033834
10.0000035026
10.0000035891
10.0000036791
10.0000037648
10.0000038464
10.0000039246
10.0000039959
10.0000040573
10.0000041102
10.000004155
10.0000041868
10.0000042007
10.0000041955
10.0000041738
10.0000041385
10.0000040921
10.0000040346
10.0000039655
10.0000038848
10.0000037931
10.0000036918
10.0000035833
10.0000034706
10.0000033569
10.0000032458
10.0000031407
10.0000030445
10.0000029596
10.0000028877
10.00000283
10.0000027869
10.0000027587
10.0000027449
10.000002745
10.000002758
10.0000027833
10.0000028195
10.0000028665
10.0000029239
10.0000029909
10.0000030666
10.0000031502
10.0000032404
10.0000033363
10.0000034367
10.0000035405
10.0000036464
10.0000037533
10.0000038602
10.0000039659
10.0000040694
10.0000041697
10.000004266
10.0000043573
10.0000044432
10.0000045229
10.0000045959
10.0000046619
10.0000047206
10.0000047717
10.0000048156
10.0000048517
10.0000048808
10.0000049027
10.0000049182
10.0000049276
10.0000049309
10.0000049309
10.0000049233
10.0000049188
10.0000049002
10.0000048991
10.0000048652
10.0000048823
10.0000000003
10.0000000101
10.0000000219
10.0000000347
10.0000000486
10.0000000635
10.00000008
10.0000000988
10.0000001205
10.0000001451
10.0000001723
10.0000002008
10.00000023
10.0000002595
10.0000002881
10.0000003164
10.0000003432
10.0000003708
10.0000003972
10.0000004273
10.0000004562
10.0000004931
10.0000005274
10.0000005759
10.0000006169
10.0000006814
10.0000007282
10.0000008132
10.0000008621
10.0000009721
10.0000010169
10.0000011561
10.000001191
10.0000013593
10.000001385
10.0000015687
10.0000016077
10.0000017599
10.0000018803
10.0000018954
10.0000022352
10.0000019357
10.0000026955
10.0000018799
10.0000032289
10.0000018118
10.0000036943
10.0000019047
10.0000039143
10.0000022807
10.0000038658
10.0000028407
10.0000037411
10.0000033654
10.0000037225
10.0000037386
10.0000038639
10.0000039635
10.0000040698
10.000004174
10.0000042489
10.0000043166
10.0000044062
10.0000044937
10.0000045248
10.00000448
10.0000043893
10.0000043009
10.0000042439
10.0000042188
10.0000042064
10.0000041851
10.0000041412
10.0000040704
10.000003975
10.0000038605
10.0000037337
10.0000036011
10.0000034687
10.0000033415
10.0000032238
10.0000031189
10.000003029
10.0000029556
10.0000028995
10.000002861
10.0000028397
10.0000028348
10.0000028453
10.0000028699
10.0000029072
10.0000029555
10.0000030137
10.0000030815
10.0000031577
10.0000032411
10.0000033304
10.0000034245
10.0000035219
10.0000036216
10.0000037223
10.0000038227
10.000003922
10.0000040189
10.0000041125
10.000004202
10.0000042865
10.0000043653
10.000004438
10.0000045037
10.0000045626
10.0000046137
10.0000046577
10.0000046936
10.0000047226
10.0000047435
10.0000047582
10.0000047652
10.0000047671
10.0000047624
10.0000047534
10.0000047402
10.0000047219
10.0000047054
10.0000046775
10.0000046661
10.0000046237
10.0000046328
10.0000000003
10.0000000101
10.0000000217
10.0000000345
10.0000000484
10.0000000634
10.0000000799
10.0000000987
10.0000001203
10.000000145
10.0000001723
10.0000002013
10.000000231
10.0000002612
10.0000002904
10.0000003192
10.0000003461
10.000000374
10.0000004001
10.0000004302
10.0000004585
10.0000004957
10.0000005292
10.0000005786
10.0000006189
10.0000006855
10.0000007312
10.00000082
10.0000008666
10.0000009833
10.0000010229
10.0000011734
10.0000011974
10.0000013845
10.0000013907
10.0000016021
10.0000016154
10.0000017931
10.0000019094
10.0000018926
10.0000023481
10.0000018014
10.0000030432
10.0000014226
10.0000040441
10.0000007983
10.0000051631
10.0000002826
10.0000058947
10.0000004331
10.000005793
10.0000014034
10.0000050974
10.0000026449
10.0000044351
10.0000036775
10.0000041253
10.0000041965
10.0000043759
10.0000044442
10.000004436
10.0000046532
10.000005027
10.0000050239
10.0000042559
10.0000029172
10.0000015975
10.000000823
10.0000007766
10.0000013039
10.0000020953
10.000002869
10.0000034616
10.0000038279
10.0000039963
10.0000040216
10.0000039564
10.0000038408
10.0000037024
10.0000035592
10.0000034229
10.0000033009
10.0000031975
10.0000031143
10.0000030516
10.0000030085
10.0000029837
10.0000029758
10.0000029832
10.0000030046
10.0000030384
10.0000030833
10.0000031379
10.0000032008
10.0000032719
10.0000033502
10.0000034343
10.0000035229
10.0000036146
10.0000037081
10.000003802
10.0000038952
10.0000039865
10.0000040748
10.0000041592
10.0000042387
10.0000043128
10.0000043805
10.0000044418
10.0000044955
10.0000045423
10.0000045807
10.0000046125
10.0000046353
10.0000046524
10.0000046599
10.0000046636
10.0000046571
10.0000046493
10.0000046309
10.0000046139
10.0000045865
10.0000045621
10.0000045303
10.0000044979
10.000004469
10.000004423
10.0000044111
10.0000000003
10.0000000101
10.0000000218
10.0000000345
10.0000000483
10.0000000633
10.0000000797
10.0000000983
10.0000001198
10.0000001445
10.0000001716
10.000000201
10.0000002313
10.0000002621
10.0000002917
10.0000003211
10.0000003482
10.0000003762
10.0000004022
10.000000432
10.00000046
10.0000004967
10.0000005303
10.0000005791
10.0000006204
10.0000006861
10.0000007344
10.0000008215
10.000000873
10.0000009863
10.0000010338
10.0000011785
10.0000012133
10.0000013928
10.0000014109
10.0000016153
10.0000016389
10.0000018104
10.000001944
10.0000018925
10.0000024481
10.0000016837
10.000003398
10.0000008864
10.0000051062
9.99999924355
10.0000076407
9.99999703809
10.0000102123
9.99999560855
10.000011128
9.99999651604
10.0000096467
9.99999921514
10.0000074005
10.0000019907
10.0000052463
10.0000044264
10.0000047191
10.0000041698
10.0000046767
10.0000068437
10.0000068555
9.99999995069
9.99998580242
9.99996925785
9.99995658328
9.99995167469
9.99995476765
9.99996334855
9.99997402773
9.99998404415
9.99999191429
9.99999731822
10.0000006293
10.0000024524
10.0000033417
10.0000036966
10.0000037658
10.0000036897
10.0000035453
10.0000033756
10.0000032077
10.000003059
10.0000029405
10.0000028577
10.0000028113
10.0000027987
10.0000028154
10.0000028559
10.0000029151
10.0000029879
10.0000030706
10.0000031599
10.0000032537
10.0000033513
10.0000034514
10.0000035527
10.000003654
10.0000037541
10.0000038521
10.0000039468
10.0000040375
10.0000041231
10.0000042033
10.0000042767
10.0000043438
10.0000044027
10.0000044552
10.0000044981
10.0000045352
10.0000045614
10.0000045833
10.0000045925
10.0000046006
10.0000045928
10.0000045891
10.000004565
10.0000045521
10.0000045118
10.0000044925
10.0000044362
10.0000044121
10.0000043401
10.0000043097
10.0000042234
10.0000041789
10.0000040846
10.0000000003
10.00000001
10.0000000213
10.0000000339
10.0000000477
10.0000000626
10.000000079
10.0000000976
10.0000001189
10.0000001434
10.0000001706
10.0000002002
10.0000002308
10.0000002621
10.0000002923
10.000000322
10.0000003495
10.0000003773
10.0000004034
10.0000004325
10.0000004607
10.000000496
10.0000005305
10.0000005772
10.0000006211
10.0000006833
10.0000007374
10.0000008181
10.0000008806
10.0000009819
10.0000010489
10.0000011719
10.0000012389
10.0000013823
10.0000014491
10.000001601
10.0000016882
10.0000017978
10.000001997
10.0000018904
10.0000025121
10.0000016605
10.000003582
10.0000005927
10.0000059144
9.99999780024
10.0000104577
9.99999255277
10.0000172455
9.99998614838
10.0000231411
9.99998348523
10.0000227834
9.99998787144
10.0000174745
9.99999362906
10.0000123884
10.0000019753
10.0000036025
10.0000031127
10.0000137798
10.0000171178