/*--------------------------------*- C++ -*----------------------------------*\
  =========                 |
  \\      /  F ield         | OpenFOAM: The Open Source CFD Toolbox
   \\    /   O peration     | Website:  https://openfoam.org
    \\  /    A nd           | Version:  7
     \\/     M anipulation  |
\*---------------------------------------------------------------------------*/
FoamFile
{
    version     2.0;
    format      ascii;
    class       volScalarField;
    location    "2700";
    object      p;
}
// * * * * * * * * * * * * * * * * * * * * * * * * * * * * * * * * * * * * * //

dimensions      [0 2 -2 0 0 0 0];

internalField   nonuniform List<scalar> 
8192
(
0.000571358382441
0.000399806449496
0.000314185021039
0.000270064284621
0.000245031841565
0.000229787530446
0.000219913500367
0.000213165192798
0.00020833567085
0.0002047408474
0.000201973301994
0.000199779060623
0.000197993192062
0.000196504689074
0.000195236510902
0.000194133783179
0.000193156555644
0.000192275200942
0.00019146739768
0.000190716095047
0.00019000810393
0.000189333098871
0.00018868289605
0.000188050920657
0.000187431806591
0.000186821089925
0.000186214969442
0.000185610115363
0.000185003512478
0.000184392327259
0.000183773791674
0.000183145097651
0.000182503296682
0.000181845200445
0.000181167278872
0.000180465552663
0.000179735477628
0.000178971818851
0.000178168513351
0.000177318520941
0.000176413664445
0.000175444462454
0.000174399960609
0.000173267571084
0.000172032934584
0.00017067982469
0.00016919012046
0.000167543879077
0.000165719544887
0.000163694332716
0.000161444819839
0.000158947770509
0.000156181198079
0.000153125642698
0.000149765609159
0.00014609107379
0.000142098936389
0.000137794268582
0.000133191198749
0.000128313281202
0.000123193229388
0.000117871954985
0.000112396946244
0.000106820128095
0.000101195446414
9.55764751248e-05
9.00143338563e-05
8.45561094352e-05
7.92438389353e-05
7.41139950478e-05
6.91973300293e-05
6.45189148742e-05
6.00982443604e-05
5.59493401699e-05
5.20808467699e-05
4.84961597832e-05
4.51936451946e-05
4.21670002909e-05
3.94057804417e-05
3.68960808896e-05
3.46213308569e-05
3.25631372092e-05
3.07021099171e-05
2.90186102781e-05
2.7493380251e-05
2.6108031728e-05
2.48453931592e-05
2.36897250046e-05
2.26268239819e-05
2.16440396892e-05
2.07302269958e-05
1.98756551424e-05
1.9071890836e-05
1.83116687514e-05
1.75887591973e-05
1.6897839631e-05
1.62343742209e-05
1.55945038145e-05
1.49749473097e-05
1.43729145353e-05
1.37860301394e-05
1.32122676535e-05
1.26498927085e-05
1.2097414327e-05
1.15535432178e-05
1.10171560652e-05
1.04872648821e-05
9.96299060035e-06
9.44354017375e-06
8.92818659058e-06
8.41625131079e-06
7.90708880003e-06
7.4000730139e-06
6.8945859513e-06
6.39000877192e-06
5.88571656769e-06
5.38107882325e-06
4.87546918112e-06
4.36829082489e-06
3.85902857233e-06
3.3473475092e-06
2.83327462822e-06
2.31753298314e-06
1.80216693954e-06
1.29175314406e-06
7.95879484587e-07
3.35238833408e-07
1.30026935245e-08
0.000422446892398
0.00035893078315
0.000309237361894
0.000276580401486
0.000254652716573
0.00023946443849
0.000228637251842
0.000220706568931
0.000214747346724
0.000210161330432
0.000206552525117
0.000203652771617
0.000201276441694
0.000199292343
0.000197605955824
0.000196147975241
0.000194866769336
0.000193723314562
0.000192687727601
0.000191736845613
0.000190852507603
0.000190020312995
0.000189228710396
0.000188468318343
0.000187731411228
0.000187011524214
0.000186303144595
0.000185601466305
0.000184902190622
0.000184201359886
0.000183495215526
0.000182780073081
0.000182052207665
0.000181307745344
0.000180542556624
0.00017975214894
0.00017893155568
0.000178075219961
0.000177176872164
0.000176229401251
0.000175224721246
0.000174153636046
0.000173005708075
0.000171769139328
0.000170430677
0.000168975560205
0.000167387528864
0.00016564892018
0.000163740881257
0.000161643727138
0.000159337470156
0.000156802537596
0.000154020679111
0.000150976043298
0.000147656375885
0.000144054263504
0.00014016832117
0.000136004202834
0.000131575306485
0.000126903052002
0.000122016635671
0.000116952214361
0.000111751545458
0.000106460197061
0.000101125525484
9.57946638726e-05
9.051276248e-05
8.53216397572e-05
8.02588896039e-05
7.53574001491e-05
7.06451678901e-05
6.61452767425e-05
6.18759404983e-05
5.78505566363e-05
5.40777684917e-05
5.05615675166e-05
4.73014811807e-05
4.42928853669e-05
4.15274582592e-05
3.89937645683e-05
3.66779335402e-05
3.45643784549e-05
3.26365018107e-05
3.08773378138e-05
2.92700980271e-05
2.77986025411e-05
2.64475939378e-05
2.5202942587e-05
2.40517586961e-05
2.29824295901e-05
2.19846007871e-05
2.10491177181e-05
2.0167942242e-05
1.93340551713e-05
1.85413532025e-05
1.77845462228e-05
1.70590589607e-05
1.63609394202e-05
1.56867753844e-05
1.50336194729e-05
1.43989226764e-05
1.37804759518e-05
1.31763592448e-05
1.25848972141e-05
1.20046208914e-05
1.14342345377e-05
1.08725869928e-05
1.03186468963e-05
9.7714812317e-06
9.23023675211e-06
8.69412395836e-06
8.16240344654e-06
7.63437462519e-06
7.10936705677e-06
6.5867350327e-06
6.06585651861e-06
5.54613839382e-06
5.02703112369e-06
4.50805789266e-06
3.98886622202e-06
3.46931490344e-06
2.9496169338e-06
2.43057222599e-06
1.91394666611e-06
1.40309437977e-06
9.04023499626e-07
4.26804966013e-07
5.3329979207e-08
0.000339505063075
0.000316834201407
0.000290837952714
0.000269596591788
0.000253472606473
0.000241157267523
0.000231631401445
0.000224167597442
0.000218243996126
0.000213481508357
0.000209601916296
0.000206399234109
0.000203719670264
0.000201447420039
0.000199494517683
0.000197793549071
0.000196292389658
0.000194950380525
0.000193735528862
0.000192622441466
0.000191590785687
0.000190624132407
0.000189709077737
0.000188834569531
0.000187991385494
0.000187171724182
0.000186368880486
0.000185576984566
0.000184790788447
0.000184005487349
0.000183216567923
0.000182419676172
0.000181610498206
0.000180784649704
0.000179937570387
0.000179064420553
0.000178159977372
0.000177218529318
0.00017623376785
0.000175198676385
0.000174105417697
0.000172945222454
0.000171708283421
0.000170383662392
0.000168959219827
0.000167421580699
0.000165756153861
0.000163947225938
0.000161978153643
0.00015983167936
0.000157490392557
0.000154937352485
0.000152156874687
0.000149135464958
0.00014586286076
0.000142333115046
0.000138545634586
0.000134506068324
0.000130226933648
0.000125727872304
0.000121035446625
0.000116182426462
0.000111206581002
0.000106149072507
0.000101052631183
9.59597388623e-05
9.09110562793e-05
8.59442414511e-05
8.10931899234e-05
7.63876478362e-05
7.18530780238e-05
6.75106528582e-05
6.33772825604e-05
5.94656380309e-05
5.57841734068e-05
5.23371841952e-05
4.91249472792e-05
4.6143980542e-05
4.33874375525e-05
4.08456253265e-05
3.85066092711e-05
3.63568555223e-05
3.43818589417e-05
3.25667132657e-05
3.08965938849e-05
2.9357139073e-05
2.79347286896e-05
2.66166688961e-05
2.53912968648e-05
2.42480216038e-05
2.31773167105e-05
2.21706791959e-05
2.12205661421e-05
2.03203184944e-05
1.94640789573e-05
1.86467090104e-05
1.78637084334e-05
1.71111395056e-05
1.6385557101e-05
1.56839452472e-05
1.50036602391e-05
1.43423801093e-05
1.36980600543e-05
1.30688933251e-05
1.24532770361e-05
1.18497823534e-05
1.12571285419e-05
1.06741604049e-05
1.00998287065e-05
9.5331732487e-06
8.9733083624e-06
8.41941069006e-06
7.87070927374e-06
7.32647815164e-06
6.78603190728e-06
6.24872495405e-06
5.71395579759e-06
5.18117816827e-06
4.64992182328e-06
4.11982711044e-06
3.5906992393e-06
3.0625909461e-06
2.53592642975e-06
2.01168556365e-06
1.4916740296e-06
9.78849847094e-07
4.77091655589e-07
6.44053364799e-08
0.000294963607491
0.000286568565236
0.000272368626269
0.000258568866367
0.000247133333091
0.000237851586962
0.000230271220854
0.000224024239215
0.000218832662844
0.000214484002719
0.000210812507384
0.000207687073441
0.000205003186373
0.000202677158193
0.000200641772919
0.000198842893056
0.000197236779813
0.000195787968122
0.000194467580587
0.000193251989834
0.000192121756769
0.000191060786578
0.000190055656036
0.000189095075275
0.000188169454968
0.000187270556043
0.000186391203946
0.000185525053378
0.000184666392167
0.000183809974211
0.000182950876508
0.000182084374276
0.000181205827954
0.000180310579026
0.000179393851524
0.000178450656657
0.000177475698527
0.000176463279485
0.000175407204223
0.000174300682462
0.00017313623098
0.000171905576936
0.000170599565992
0.000169208080761
0.000167719977666
0.00016612305342
0.000164404055888
0.000162548757892
0.000160542115819
0.00015836853688
0.000156012278036
0.000153457994321
0.000150691443228
0.000147700334256
0.00014447528999
0.000141010860151
0.00013730650728
0.000133367465842
0.000129205367544
0.000124838525718
0.000120291783975
0.000115595866918
0.000110786231671
0.000105901507284
0.000100981704303
9.60664359526e-05
9.11934143431e-05
8.63973755969e-05
8.17094473586e-05
7.71568913213e-05
7.27630734623e-05
6.85475189736e-05
6.45259590133e-05
6.07103365451e-05
5.7108788699e-05
5.37256536166e-05
5.05615579223e-05
4.76136287691e-05
4.48758479816e-05
4.23395347146e-05
3.99939171266e-05
3.78267397204e-05
3.58248528322e-05
3.39747413198e-05
3.22629653854e-05
3.06765026121e-05
2.92029932396e-05
2.78308992214e-05
2.65495918438e-05
2.53493837183e-05
2.42215199e-05
2.31581407888e-05
2.21522270024e-05
2.11975340421e-05
2.0288522483e-05
1.9420287719e-05
1.85884919495e-05
1.77893000923e-05
1.70193205649e-05
1.62755513588e-05
1.55553314729e-05
1.48562975419e-05
1.41763453467e-05
1.35135958242e-05
1.28663651491e-05
1.2233138468e-05
1.16125468795e-05
1.10033472887e-05
1.04044048126e-05
9.81467746421e-06
9.23320290749e-06
8.65908715011e-06
8.09149512743e-06
7.5296432394e-06
6.97279403396e-06
6.4202534028e-06
5.87137087824e-06
5.32554392576e-06
4.78222755531e-06
4.24095121491e-06
3.70134592571e-06
3.16318619481e-06
2.62645342879e-06
2.09142859984e-06
1.5588073373e-06
1.02972077007e-06
5.05020548077e-07
6.62074638297e-08
0.000267359460207
0.000265378600857
0.000257567213298
0.000248363483196
0.000240072643228
0.000233032255226
0.000227085476969
0.000222027071675
0.000217688732731
0.000213940781424
0.000210681929403
0.000207830900364
0.000205321044845
0.000203096969919
0.000201112310724
0.000199328127453
0.000197711661733
0.000196235322736
0.000194875839245
0.000193613543523
0.000192431765346
0.000191316319981
0.000190255076403
0.0001892375937
0.000188254814914
0.00018729880887
0.000186362551737
0.000185439741482
0.000184524638366
0.000183611925488
0.000182696587469
0.000181773802968
0.000180838845919
0.000179886993836
0.000178913440768
0.000177913212898
0.000176881085122
0.000175811497308
0.000174698469344
0.000173535514608
0.00017231555217
0.000171030818933
0.000169672784238
0.000168232071093
0.000166698390563
0.000165060498723
0.000163306189266
0.000161422338987
0.000159395027537
0.000157209756201
0.000154851791359
0.000152306654922
0.000149560774282
0.000146602287173
0.000143421973103
0.000140014256281
0.000136378200301
0.00013251839667
0.000128445638568
0.000124177267143
0.00011973708252
0.000115154736645
0.000110464585591
0.000105704080258
0.000100911894326
9.61260676953e-05
9.13824869471e-05
8.6713878089e-05
8.21493034467e-05
7.77140628998e-05
7.34298041961e-05
6.93146680968e-05
6.53833684716e-05
6.16471837955e-05
5.81138940939e-05
5.47877294256e-05
5.16694019386e-05
4.87562762069e-05
4.60426991449e-05
4.35204728631e-05
4.11794235091e-05
3.90080045194e-05
3.69938749389e-05
3.51244078856e-05
3.33871036486e-05
3.17699001052e-05
3.02613865639e-05
2.88509349379e-05
2.7528765155e-05
2.62859614662e-05
2.51144542567e-05
2.40069792273e-05
2.2957023033e-05
2.19587620335e-05
2.10069988076e-05
2.00970995485e-05
1.92249343095e-05
1.83868212478e-05
1.75794754378e-05
1.67999624423e-05
1.60456565681e-05
1.53142035839e-05
1.46034875826e-05
1.39116016279e-05
1.32368218131e-05
1.25775843653e-05
1.19324654513e-05
1.13001633687e-05
1.06794828399e-05
1.00693211664e-05
9.46865604021e-06
8.87653485347e-06
8.29206539853e-06
7.71440790647e-06
7.14276844219e-06
6.57639376692e-06
6.01456790693e-06
5.45661086264e-06
4.90188019742e-06
4.34977673159e-06
3.79975629588e-06
3.25135036008e-06
2.7041983437e-06
2.15808876164e-06
1.61297597178e-06
1.06881969133e-06
5.24778196263e-07
6.65299192857e-08
0.000249027108162
0.000249905708772
0.000245848115134
0.000239700896959
0.000233595760199
0.000228154409786
0.000223427244549
0.000219319216154
0.00021572358213
0.000212551725122
0.000209734170354
0.000207216030483
0.000204952807945
0.000202907496464
0.000201048731514
0.000199349608664
0.000197786889966
0.000196340428997
0.00019499272127
0.000193728531515
0.000192534573395
0.000191399229252
0.000190312303168
0.000189264803068
0.000188248748572
0.000187257001685
0.000186283117553
0.000185321213272
0.000184365850208
0.000183411927988
0.000182454590216
0.000181489138951
0.000180510954145
0.000179515417537
0.00017849783932
0.000177453386136
0.000176377009051
0.000175263370414
0.000174106768676
0.000172901060613
0.000171639580819
0.000170315059017
0.000168919536771
0.000167444286571
0.000165879738426
0.000164215421904
0.000162439935399
0.000160540959106
0.000158505333447
0.000156319229723
0.000153968442802
0.000151438834372
0.00014871694693
0.000145790791152
0.000142650783308
0.000139290778937
0.000135709121064
0.000131909601295
0.000127902220264
0.000123703625543
0.000119337100365
0.000114831990414
0.000110222515443
0.00010554603337
0.000100840982952
9.61448444029e-05
9.1492530959e-05
8.69154255993e-05
8.24410261898e-05
7.80930462923e-05
7.38917040014e-05
6.98539799984e-05
6.59937366572e-05
6.23216883756e-05
5.88452799711e-05
5.55685637817e-05
5.24921693055e-05
4.9613434926e-05
4.69267277969e-05
4.44239298519e-05
4.20950309593e-05
3.9928754487e-05
3.79131464318e-05
3.60360794755e-05
3.42856479725e-05
3.26504511757e-05
3.11197762442e-05
2.96836995753e-05
2.83331264947e-05
2.70597875299e-05
2.58562062052e-05
2.47156497521e-05
2.3632070935e-05
2.26000466125e-05
2.16147166959e-05
2.06717257556e-05
1.9767168539e-05
1.88975400071e-05
1.80596900665e-05
1.72507829057e-05
1.64682606862e-05
1.57098112569e-05
1.49733395201e-05
1.4256942073e-05
1.35588847565e-05
1.28775827702e-05
1.22115830331e-05
1.15595485042e-05
1.09202442036e-05
1.02925247065e-05
9.67532290875e-06
9.06763989231e-06
8.46853574864e-06
7.8771212527e-06
7.29255032405e-06
6.71401327523e-06
6.14073094315e-06
5.57194994846e-06
5.00693954925e-06
4.44499084847e-06
3.88541935641e-06
3.32757157688e-06
2.77083353563e-06
2.2146282378e-06
1.65835369597e-06
1.10112102986e-06
5.41009066228e-07
6.71635548124e-08
0.000236161221596
0.000238265098932
0.000236449635702
0.000232417335781
0.000227917995059
0.000223668196136
0.000219857143728
0.000216479149181
0.000213476802768
0.000210789651794
0.000208366667693
0.00020616705384
0.000204158194686
0.000202313486886
0.00020061069351
0.000199030822335
0.000197557386605
0.000196175913377
0.000194873602978
0.000193639078354
0.000192462187985
0.000191333841842
0.000190245869113
0.000189190891642
0.000188162209741
0.000187153698407
0.000186159712612
0.000185175001824
0.000184194628786
0.000183213894512
0.000182228270053
0.000181233332479
0.000180224702661
0.000179197984999
0.00017814870797
0.000177072264433
0.000175963850656
0.000174818403062
0.000173630531756
0.000172394450052
0.000171103899472
0.000169752070124
0.000168331517124
0.00016683407494
0.000165250773395
0.000163571761894
0.000161786252411
0.000159882497146
0.000157847823298
0.000155668754418
0.000153331253472
0.000150821124143
0.000148124600132
0.000145229134093
0.000142124368163
0.000138803231973
0.00013526308111
0.000131506767391
0.000127543520731
0.00012338951029
0.000119067934668
0.000114608486973
0.00011004609509
0.000105418984415
0.000100766325724
9.61258989201e-05
9.1532320802e-05
8.70161144169e-05
8.26035440163e-05
7.83169772068e-05
7.41754010511e-05
7.01948152925e-05
6.63883895722e-05
6.27663971194e-05
5.93360127653e-05
5.61010979807e-05
5.3062095362e-05
5.02161216025e-05
4.75572905998e-05
4.50772358931e-05
4.27657554493e-05
4.06114849365e-05
3.86025171958e-05
3.67269142933e-05
3.49730904551e-05
3.33300695576e-05
3.17876359587e-05
3.03364032458e-05
2.89678249356e-05
2.76741673775e-05
2.64484603328e-05
2.52844362109e-05
2.41764652838e-05
2.31194914641e-05
2.21089713155e-05
2.11408176816e-05
2.02113485013e-05
1.93172408791e-05
1.84554901883e-05
1.76233738359e-05
1.68184192496e-05
1.60383756296e-05
1.52811890255e-05
1.45449803216e-05
1.38280257532e-05
1.31287396129e-05
1.24456588407e-05
1.17774292253e-05
1.11227929748e-05
1.04805774403e-05
9.84968479857e-06
9.22908252397e-06
8.6177944979e-06
8.01489263126e-06
7.41948890479e-06
6.83072777637e-06
6.24777896574e-06
5.66983070627e-06
5.09608363027e-06
4.52574543942e-06
3.95802613095e-06
3.39213202602e-06
2.82725213766e-06
2.26251755744e-06
1.69688367357e-06
1.128828049e-06
5.55718408959e-07
6.89952674662e-08
0.000226715945247
0.000229282346624
0.00022881432744
0.000226264229443
0.000222980826291
0.000219658597567
0.000216562699647
0.000213755286557
0.000211221950461
0.000208927082545
0.000206834290638
0.000204912308946
0.000203135632232
0.000201483589904
0.000199939203979
0.000198488235335
0.000197118482287
0.000195819291061
0.000194581219273
0.000193395802052
0.000192255384257
0.000191152994349
0.000190082244388
0.000189037246604
0.00018801254081
0.000187003029255
0.000186003916799
0.00018501065718
0.000184018898099
0.000183024430037
0.000182023139356
0.000181010962045
0.000179983837381
0.000178937661633
0.00017786824103
0.000176771243158
0.000175642145918
0.000174476183076
0.000173268285402
0.000172013016395
0.000170704501637
0.000169336351057
0.000167901573876
0.000166392486921
0.000164800618655
0.000163116613917
0.000161330148552
0.000159429869099
0.000157403380676
0.00015523731562
0.000152917524371
0.000150429435021
0.000147758623546
0.000144891617923
0.00014181692451
0.000138526220703
0.000135015617731
0.000131286874549
0.000127348435634
0.000123216151664
0.000118913506219
0.000114471138064
0.000109925488878
0.000105316585531
0.000100685263827
9.60703960509e-05
9.15068670156e-05
8.70246766103e-05
8.26490371667e-05
7.84010885199e-05
7.42987045706e-05
7.03570438582e-05
6.65887367202e-05
6.30037575125e-05
5.96091108302e-05
5.64084951002e-05
5.34021027966e-05
5.0586671689e-05
4.7955825198e-05
4.55006574811e-05
4.32104601689e-05
4.10734700931e-05
3.90775377951e-05
3.72106574538e-05
3.54613406025e-05
3.38188463359e-05
3.22732963976e-05
3.08157073357e-05
2.9437968561e-05
2.81327888496e-05
2.68936272636e-05
2.57146189234e-05
2.45905019253e-05
2.35165488426e-05
2.24885044149e-05
2.15025299134e-05
2.05551540411e-05
1.96432298985e-05
1.87638974039e-05
1.79145505225e-05
1.70928086793e-05
1.62964917785e-05
1.55235983166e-05
1.47722861334e-05
1.40408554051e-05
1.33277335369e-05
1.26314616544e-05
1.19506824343e-05
1.12841290435e-05
1.06306149867e-05
9.98902467741e-06
9.35830457253e-06
8.737454721e-06
8.12552059659e-06
7.52158509904e-06
6.92476062515e-06
6.33418112116e-06
5.74899401073e-06
5.16835178967e-06
4.59140274168e-06
4.01727930297e-06
3.44508026929e-06
2.87383751991e-06
2.3024458653e-06
1.72951189912e-06
1.15304901071e-06
5.69956593642e-07
7.25359521717e-08
0.000219524469986
0.0002222000079
0.000222540968559
0.000221033851488
0.000218682126279
0.000216101210594
0.00021358376866
0.000211237085181
0.000209081889129
0.0002071051519
0.000205284114931
0.000203595836045
0.000202020269124
0.000200540743123
0.000199143547824
0.000197817321008
0.000196552486584
0.00019534080982
0.000194175067397
0.000193048809625
0.000191956190229
0.000190891843245
0.000189850791731
0.000188828377557
0.000187820204976
0.000186822093175
0.000185830034546
0.000184840159026
0.000183848695812
0.000182851937191
0.000181846207131
0.000180827827806
0.000179793085411
0.000178738194895
0.000177659262984
0.000176552248756
0.000175412920914
0.000174236810801
0.000173019160009
0.000171754861326
0.000170438391654
0.000169063735509
0.000167624297941
0.000166112806307
0.000164521201667
0.000162840522992
0.000161060791632
0.000159170910052
0.000157158598386
0.000155010404502
0.000152711836418
0.000150247675551
0.000147602528594
0.000144761656563
0.000141712077993
0.000138443886714
0.000134951673761
0.000131235919251
0.000127304221336
0.000123172218739
0.00011886400389
0.000114411741222
0.000109854213384
0.000105234235011
0.000100595289365
9.59781362804e-05
9.14184225235e-05
8.69458324034e-05
8.2584565244e-05
7.83545365364e-05
7.4272555107e-05
7.03530500999e-05
6.6608269599e-05
6.30480554484e-05
5.96793753192e-05
5.65058254003e-05
5.35273100666e-05
5.07400461843e-05
4.81369376235e-05
4.5708255184e-05
4.34424814832e-05
4.13271632376e-05
3.93496476158e-05
3.74976375789e-05
3.57595558014e-05
3.41247427551e-05
3.25835299875e-05
3.11272301476e-05
2.97480780917e-05
2.84391479332e-05
2.71942622535e-05
2.60079030391e-05
2.48751293309e-05
2.37915036811e-05
2.27530278357e-05
2.17560871703e-05
2.07974030017e-05
1.98739917683e-05
1.89831300896e-05
1.81223247953e-05
1.72892871308e-05
1.64819104519e-05
1.56982508313e-05
1.4936510088e-05
1.41950208306e-05
1.34722331689e-05
1.27667028028e-05
1.20770802383e-05
1.14021009168e-05
1.07405760673e-05
1.00913841148e-05
9.45346249017e-06
8.82579969819e-06
8.20742750599e-06
7.59741310951e-06
6.99485111885e-06
6.39885515375e-06
5.80854872069e-06
5.22305477187e-06
4.64148274556e-06
4.06291059346e-06
3.48635659031e-06
2.91073029629e-06
2.33474211503e-06
1.75673613907e-06
1.17440036693e-06
5.8433535543e-07
7.81222468649e-08
0.000213889092289
0.000216514397468
0.000217337138304
0.000216564588112
0.000214928922331
0.000212947651888
0.000210909075337
0.000208945500643
0.000207103689798
0.000205389959822
0.000203794273357
0.000202301689896
0.000200897228807
0.000199567595042
0.000198301531548
0.000197089639635
0.000195924043654
0.000194798054169
0.000193705882605
0.000192642417177
0.00019160305353
0.000190583568938
0.000189580029075
0.000188588718247
0.000187606086019
0.00018662870509
0.000185653236929
0.000184676403496
0.000183694958495
0.000182705659106
0.000181705244017
0.000180690408265
0.000179657777321
0.000178603879693
0.000177525117383
0.000176417733464
0.000175277775896
0.000174101056527
0.000172883103996
0.000171619109023
0.000170303860248
0.000168931668587
0.000167496277939
0.000165990760309
0.000164407394334
0.000162737528254
0.000160971432481
0.000159098154
0.000157105395847
0.000154979460329
0.000152705312837
0.000150266839387
0.000147647375963
0.000144830569136
0.000141801577166
0.000138548546557
0.000135064231324
0.000131347598169
0.000127405281596
0.000123252756765
0.000118915008593
0.000114426313824
0.000109828696271
0.000105168872451
0.000100494087984
9.58478530398e-05
9.12670283749e-05
8.67810589674e-05
8.24130182709e-05
7.81814873223e-05
7.41021999461e-05
7.01889549185e-05
6.64537922528e-05
6.29066214843e-05
5.95545445902e-05
5.64011462837e-05
5.34460183907e-05
5.06847102759e-05
4.81091599552e-05
4.57085107827e-05
4.34701199251e-05
4.13805505826e-05
3.94263955741e-05
3.75948628713e-05
3.58741250601e-05
3.42534766184e-05
3.27233564779e-05
3.12752886821e-05
2.99017814521e-05
2.85962115899e-05
2.7352710159e-05
2.61660576293e-05
2.5031591769e-05
2.39451287768e-05
2.29028967255e-05
2.19014798104e-05
2.09377717577e-05
2.00089368482e-05
1.91123771958e-05
1.82457051327e-05
1.74067197496e-05
1.65933868166e-05
1.58038214525e-05
1.50362730329e-05
1.42891119194e-05
1.35608176705e-05
1.28499684516e-05
1.2155231411e-05
1.14753538182e-05
1.08091547937e-05
1.01555174718e-05
9.51338145281e-06
8.88173539941e-06
8.25960962955e-06
7.64606852784e-06
7.04020254841e-06
6.44111947301e-06
5.84793438016e-06
5.2597573762e-06
4.67567736053e-06
4.09473861681e-06
3.51590427903e-06
2.93799591322e-06
2.35959098316e-06
1.77885142076e-06
1.19325562891e-06
5.99233617366e-07
8.59785128958e-08
0.000209374160756
0.000211882045917
0.000212985941245
0.000212730527695
0.000211644928909
0.000210150539161
0.000208513224459
0.000206874784471
0.000205299168055
0.000203808032933
0.000202402600122
0.000201075525958
0.000199816791257
0.000198616354079
0.000197465171893
0.000196355456897
0.000195280603972
0.000194235003757
0.000193213837133
0.000192212890035
0.000191228400488
0.000190256937858
0.000189295309802
0.000188340491273
0.000187389570254
0.000186439705752
0.000185488095684
0.000184531949728
0.000183568464766
0.000182594800906
0.000181608063598
0.000180605283395
0.000179583395038
0.000178539215092
0.000177469417431
0.000176370505743
0.000175238782125
0.000174070310625
0.000172860874292
0.000171605923918
0.000170300516247
0.000168939238888
0.00016751611878
0.000166024510764
0.000164456963253
0.00016280505946
0.000161059236409
0.000159208591221
0.000157240696641
0.000155141466632
0.00015289513741
0.0001504844544
0.000147891169323
0.00014509693591
0.000142084631812
0.000138840034167
0.000135353681344
0.000131622728123
0.000127652658822
0.000123458763107
0.000119067156176
0.000114514835858
0.000109848090381
0.000105118864559
0.000100379511529
9.56772961988e-05
9.10507235744e-05
8.65289211604e-05
8.21335463726e-05
7.78816190163e-05
7.37877447291e-05
6.98651971451e-05
6.61260161205e-05
6.25804257265e-05
5.92358787979e-05
5.60960686109e-05
5.31602526858e-05
5.04231411768e-05
4.78754160811e-05
4.55047413442e-05
4.32969937553e-05
4.12374377395e-05
3.93116560756e-05
3.75061665302e-05
3.58087468997e-05
3.42085381026e-05
3.2696003853e-05
3.12628128589e-05
2.99016899625e-05
2.86062645472e-05
2.73709310451e-05
2.61907276454e-05
2.50612342852e-05
2.39784884973e-05
2.2938916674e-05
2.19392781187e-05
2.09766194535e-05
2.00482372987e-05
1.91516475143e-05
1.82845596317e-05
1.74448553929e-05
1.66305705478e-05
1.58398792422e-05
1.5071080473e-05
1.43225861978e-05
1.35929107668e-05
1.28806614117e-05
1.2184529571e-05
1.15032828696e-05
1.08357575898e-05
1.01808514916e-05
9.53751684071e-06
8.90475350194e-06
8.28160192868e-06
7.66713583991e-06
7.0604542864e-06
6.46067265528e-06
5.86691188362e-06
5.2782846581e-06
4.69387650327e-06
4.11271814104e-06
3.53374294965e-06
2.95571936925e-06
2.37714282815e-06
1.79606739112e-06
1.2098606237e-06
6.14887124061e-07
9.62410686673e-08
0.00020569642191
0.000208063136749
0.000209324013394
0.0002094319956
0.000208768219228
0.000207669028066
0.000206369562934
0.000205010347361
0.00020366494225
0.000202366188425
0.000201124658974
0.000199939892412
0.000198806637297
0.000197718074915
0.000196667347703
0.000195648190937
0.000194655116413
0.000193683389224
0.000192728922017
0.000191788147657
0.000190857897867
0.000189935298391
0.000189017682978
0.000188102524777
0.000187187382373
0.00018626985734
0.000185347562752
0.000184418095338
0.000183479011355
0.000182527805215
0.000181561892567
0.000180578592429
0.000179575108874
0.00017854851151
0.000177495713977
0.000176413449602
0.000175298243196
0.000174146377788
0.000172953854669
0.000171716344738
0.000170429128453
0.000169087021003
0.000167684278466
0.000166214479991
0.000164670380705
0.000163043730835
0.000161325059536
0.000159503429014
0.000157566178095
0.000155498696923
0.00015328430645
0.000150904353337
0.000148338658054
0.000145566445281
0.00014256781291
0.00013932565815
0.000135827838988
0.000132069318079
0.000128054156809
0.000123797345396
0.00011932630203
0.000114681382338
0.000109914338919
0.000105083989041
0.00010024949845
9.54631314083e-05
9.07654608819e-05
8.61850143762e-05
8.17415213471e-05
7.74500936653e-05
7.33241347131e-05
6.93765280268e-05
6.56195728782e-05
6.20641147875e-05
5.87182272246e-05
5.55858600932e-05
5.26659040256e-05
4.99520078485e-05
4.7433231383e-05
4.50953273157e-05
4.29222721159e-05
4.08976752265e-05
3.90058364212e-05
3.72323885037e-05
3.55645807663e-05
3.39913086325e-05
3.25029944687e-05
3.1091400251e-05
2.97494241202e-05
2.84709093324e-05
2.72504781283e-05
2.60833936223e-05
2.49654479982e-05
2.38928733232e-05
2.28622708546e-05
2.18705550192e-05
2.09149088291e-05
1.9992748124e-05
1.9101692601e-05
1.82395420633e-05
1.74042566923e-05
1.65939404398e-05
1.58068268508e-05
1.50412667914e-05
1.42957176802e-05
1.35687339055e-05
1.28589581819e-05
1.21651136445e-05
1.14859965121e-05
1.08204691751e-05
1.01674535727e-05
9.52592472574e-06
8.89490427583e-06
8.27345385146e-06
7.66066801503e-06
7.05566643701e-06
6.45758475103e-06
5.86556322234e-06
5.27873181867e-06
4.69618937306e-06
4.11697307007e-06
3.54001223902e-06
2.96405728979e-06
2.38757107593e-06
1.80856808783e-06
1.22439123238e-06
6.31431480477e-07
1.08968423743e-07
0.00020266456441
0.000204886311977
0.000206226570932
0.000206588819938
0.000206247804724
0.000205468739371
0.000204453908422
0.000203335837452
0.000202191790505
0.000201061966313
0.000199964212205
0.000198903980153
0.000197880415256
0.000196889824415
0.000195927531515
0.000194988797548
0.000194069224311
0.000193164886563
0.000192272330564
0.000191388513954
0.000190510726104
0.000189636508097
0.000188763580751
0.000187889783416
0.000187013023552
0.000186131235656
0.000185242350518
0.000184344267717
0.000183434829772
0.000182511802794
0.000181572859188
0.000180615560566
0.000179637340484
0.000178635486212
0.000177607118748
0.000176549170183
0.000175458357367
0.000174331150583
0.000173163735519
0.000171951966261
0.000170691306287
0.000169376753405
0.000168002743404
0.000166563025815
0.000165050504087
0.000163457032187
0.000161773161572
0.000159987838769
0.000158088067888
0.000156058578335
0.000153881578593
0.000151536729198
0.000149001515387
0.000146252205794
0.000143265499664
0.000140020773281
0.000136502619453
0.000132703322825
0.000128625139141
0.000124282517832
0.000119704248693
0.000114934702444
0.000110032534079
0.000105065536268
0.000100101937758
9.52006348516e-05
9.04046996704e-05
8.57414832574e-05
8.12279864493e-05
7.68769514991e-05
7.27005219113e-05
6.87113839334e-05
6.49224227493e-05
6.13454821635e-05
5.79895837271e-05
5.48591041795e-05
5.19525030119e-05
4.92620599078e-05
4.6774727774e-05
4.4473796311e-05
4.23408263177e-05
4.03573559374e-05
3.85061014763e-05
3.67716116956e-05
3.51404825097e-05
3.3601286427e-05
3.21443540952e-05
3.07615042669e-05
2.94457784082e-05
2.81912067005e-05
2.69926140103e-05
2.58454648097e-05
2.47457418669e-05
2.36898524026e-05
2.26745557412e-05
2.16969073917e-05
2.07542155175e-05
1.98440066822e-05
1.89639985298e-05
1.81120776586e-05
1.72862814077e-05