/*--------------------------------*- C++ -*----------------------------------*\
  =========                 |
  \\      /  F ield         | OpenFOAM: The Open Source CFD Toolbox
   \\    /   O peration     | Website:  https://openfoam.org
    \\  /    A nd           | Version:  7
     \\/     M anipulation  |
\*---------------------------------------------------------------------------*/
FoamFile
{
    version     2.0;
    format      ascii;
    class       surfaceScalarField;
    location    "2700";
    object      phi;
}
// * * * * * * * * * * * * * * * * * * * * * * * * * * * * * * * * * * * * * //

dimensions      [0 3 -1 0 0 0 0];

internalField   nonuniform List<scalar> 
16192
(
6.92937396315e-10
2.44562603685e-10
4.93592611434e-10
1.99344784628e-10
3.64856480496e-10
1.2873613069e-10
2.82257118491e-10
8.25993617712e-11
2.27599492628e-10
5.46576256302e-11
1.89942323448e-10
3.76571689456e-11
1.62945124707e-10
2.69971985075e-11
1.42896899803e-10
2.00482246686e-11
1.27564553119e-10
1.53323464479e-11
1.15556440114e-10
1.20081127704e-11
1.0597261564e-10
9.58382424174e-12
9.8209800236e-11
7.76281517643e-12
9.18499262892e-11
6.35987372523e-12
8.65945524404e-11
5.25537363542e-12
8.22250460965e-11
4.36950614008e-12
7.85776430128e-11
3.64740289092e-12
7.55273485159e-11
3.05029431619e-12
7.29772486913e-11
2.55009965735e-12
7.08512267418e-11
2.1260217965e-12
6.90888809908e-11
1.76234561382e-12
6.76419025982e-11
1.44697827218e-12
6.64714439208e-11
1.17045857523e-12
6.5546173826e-11
9.2527001207e-13
6.48408189529e-11
7.05354811483e-13
6.43350551065e-11
5.05763807061e-13
6.40126552443e-11
3.22399847141e-13
6.38608284258e-11
1.51826828798e-13
6.38697028435e-11
-8.8743797386e-15
6.4031918766e-11
-1.62215856045e-13
6.43423053746e-11
-3.10386511053e-13
6.4797622837e-11
-4.55317332987e-13
6.53963551331e-11
-5.98732132165e-13
6.61385409428e-11
-7.42185610866e-13
6.70256319736e-11
-8.87090794465e-13
6.80603691365e-11
-1.03473688888e-12
6.92466673117e-11
-1.18629786109e-12
7.05894990856e-11
-1.34283142019e-12
7.2094767001e-11
-1.50526752004e-12
7.37691524609e-11
-1.67438502411e-12
7.56199276995e-11
-1.85077476079e-12
7.76547151653e-11
-2.03478694822e-12
7.98811766794e-11
-2.2264609557e-12
8.23066130717e-11
-2.42543579679e-12
8.49374545028e-11
-2.63084079786e-12
8.7778623034e-11
-2.84116786541e-12
9.08327536369e-11
-3.05412990513e-12
9.40992688126e-11
-3.2665144528e-12
9.75733169137e-11
-3.47404735491e-12
1.01244605641e-10
-3.67128796658e-12
1.05096190092e-10
-3.8515836806e-12
1.09103306845e-10
-4.00711598295e-12
1.13232377966e-10
-4.12907035793e-12
1.17440334889e-10
-4.20795618016e-12
1.21674424586e-10
-4.23408898284e-12
1.25872652128e-10
-4.19822686925e-12
1.29964980534e-10
-4.09232778111e-12
1.33875349597e-10
-3.91036850029e-12
1.37524492725e-10
-3.64914263087e-12
1.40833428718e-10
-3.30893557149e-12
1.43727391469e-10
-2.89396240423e-12
1.46139848433e-10
-2.41245670185e-12
1.48016174617e-10
-1.87632600455e-12
1.49316528297e-10
-1.30035358978e-12
1.50017551507e-10
-7.01023208875e-13
1.50112700008e-10
-9.51485977451e-14
1.49611259018e-10
5.01440798189e-13
1.48536355392e-10
1.07490333085e-12
1.46922428626e-10
1.61392637244e-12
1.44812619508e-10
2.10980862274e-12
1.42256426346e-10
2.5561925725e-12
1.39307792093e-10
2.94863357001e-12
1.36023606762e-10
3.28418456873e-12
1.32462493431e-10
3.56111249256e-12
1.28683710491e-10
3.77878204093e-12
1.24746034647e-10
3.93767488993e-12
1.20706562015e-10
4.03947164075e-12
1.16619447293e-10
4.08711369916e-12
1.12534667788e-10
4.08477846895e-12
1.08496932341e-10
4.03773440254e-12
1.04544850786e-10
3.95208051752e-12
1.0071044369e-10
3.83440607053e-12
9.70190201579e-11
3.69142253065e-12
9.34893991553e-11
3.52962002777e-12
9.01344102574e-11
3.35498795844e-12
8.6961588423e-11
3.17282093137e-12
8.39739743677e-11
2.9876131947e-12
8.11709423692e-11
2.80303117948e-12
7.85489952464e-11
2.62194634909e-12
7.61024860404e-11
2.44650847584e-12
7.38242441577e-11
2.27824119827e-12
7.17060981292e-11
2.11814538694e-12
6.97392974349e-11
1.96680009684e-12
6.79148421267e-11
1.82445475169e-12
6.6223732296e-11
1.69110931552e-12
6.46571504046e-11
1.5665814143e-12
6.32065891534e-11
1.45056081181e-12
6.18639363036e-11
1.342652445e-12
6.06215263296e-11
1.2424096032e-12
5.94721670807e-11
1.14935890898e-12
5.84091480917e-11
1.06301867921e-12
5.74262357442e-11
9.82912065009e-13
5.65176593174e-11
9.08576170769e-13
5.56780909413e-11
8.39568143762e-13
5.49026216852e-11
7.75469046654e-13
5.41867353321e-11
7.15886164135e-13
5.35262808894e-11
6.6045427325e-13
5.29174444301e-11
6.08836307436e-13
5.23567205127e-11
5.60723782012e-13
5.18408830837e-11
5.15837308246e-13
5.13669554585e-11
4.73927518357e-13
5.09321786185e-11
4.3477674534e-13
5.05339766682e-11
3.98201867008e-13
5.01699177601e-11
3.64058834806e-13
4.98376681011e-11
3.32249595093e-13
4.95349356439e-11
3.02732401555e-13
4.92593986131e-11
2.75536982997e-13
4.90086117966e-11
2.507867756e-13
4.87798801031e-11
2.28731659321e-13
4.8570083364e-11
2.097967108e-13
4.83754272864e-11
1.94656054705e-13
4.81910801958e-11
1.84347071769e-13
4.80106295129e-11
1.80450666979e-13
4.78252501741e-11
1.85379323998e-13
4.76224194677e-11
2.02830691201e-13
4.73839811915e-11
2.38438259596e-13
4.70836819735e-11
3.00299200758e-13
4.66864015822e-11
3.97280375515e-13
5.09680069289e-13
9.53423647486e-10
2.28638955962e-10
8.59658957711e-10
2.93109473917e-10
7.45078560863e-10
2.43316527066e-10
6.41824219737e-10
1.85853702436e-10
5.56525575277e-10
1.39956269629e-10
4.8798473191e-10
1.0619801185e-10
4.33184240915e-10
8.17976890397e-11
3.89175332294e-10
6.40571328257e-11
3.53547540306e-10
5.09601379733e-11
3.24446473589e-10
4.11091790306e-11
3.0047403292e-10
3.35562644624e-11
2.80578751001e-10
2.76580966591e-11
2.63965195683e-10
2.29734286222e-11
2.50025764217e-10
1.91948046985e-11
2.38291147517e-10
1.61041224591e-11
2.28394777703e-10
1.35437723468e-11
2.20047311293e-10
1.1397760394e-11
2.1301820074e-10
9.57920990573e-12
2.07122258439e-10
8.02196382427e-12
2.02209751806e-10
6.67485200561e-12
1.98159016116e-10
5.49771375688e-12
1.94870880975e-10
4.45859354901e-12
1.92264418088e-10
3.53173277167e-12
1.90273662975e-10
2.69610984185e-12
1.88845063023e-10
1.93436372241e-12
1.87935473375e-10
1.23198950971e-12
1.87510570282e-10
5.76729987875e-13
1.87543585448e-10
-4.1889422677e-14
1.88014288576e-10
-6.32918800651e-13
1.88908161753e-10
-1.20425944196e-12
1.9021572327e-10
-1.76287853862e-12
1.91931966011e-10
-2.31497449246e-12
1.94055880438e-10
-2.86609958507e-12
1.96590036054e-10
-3.42124588266e-12
1.99540197191e-10
-3.98489742239e-12
2.02914949515e-10
-4.56104950191e-12
2.06725312902e-10
-5.15319404584e-12
2.10984314687e-10
-5.76426846289e-12
2.15706494698e-10
-6.39656411279e-12
2.20907310539e-10
-7.05158959964e-12
2.26602408458e-10
-7.72988378877e-12
2.32806722736e-10
-8.43077408019e-12
2.39533365687e-10
-9.15207752391e-12
2.46792272662e-10
-9.88974648386e-12
2.54588573554e-10
-1.06374674091e-11
2.62920676562e-10
-1.13862315128e-11
2.71778073591e-10
-1.21239100402e-11
2.81138911625e-10
-1.28348839165e-11
2.90967421331e-10
-1.34997961844e-11
3.01211351605e-10
-1.40955124643e-11
3.11799621637e-10
-1.45953845429e-11
3.22640461634e-10
-1.49699089174e-11
3.33620356685e-10
-1.5187849851e-11
3.44604121384e-10
-1.52178523781e-11
3.55436402559e-10
-1.50305068392e-11
3.65944826559e-10
-1.46007506896e-11
3.75944875323e-10
-1.39104163056e-11
3.85246398889e-10
-1.29506653795e-11
3.93661462614e-10
-1.17239986333e-11
4.01013003907e-10
-1.02455031939e-11
4.07143565326e-10
-8.54301778434e-12
4.11923227282e-10
-6.65598779623e-12
4.15255846635e-10
-4.6329729584e-12
4.17082871548e-10
-2.52804832051e-12
4.17384355838e-10
-3.96633277506e-13
4.16177271007e-10
1.70852504468e-12
4.13511683222e-10
3.74049033418e-12
4.09465654266e-10
5.65995435453e-12
4.04139745128e-10
7.43571659894e-12
3.97651812415e-10
9.04412395001e-12
3.90132460835e-10
1.04679836529e-11
3.81721192492e-10
1.16954512738e-11
3.72563074742e-10
1.27192284827e-11
3.62805668247e-10
1.35361866775e-11
3.5259599857e-10
1.41473426298e-11
3.42077473641e-10
1.45579945817e-11
3.31386791764e-10
1.4777793556e-11
3.20651002787e-10
1.48205654185e-11
3.09984945558e-10
1.47037896133e-11
2.99489277557e-10
1.44477465308e-11
2.89249247791e-10
1.4074433891e-11
2.79334267577e-10
1.36064008585e-11
2.69798234529e-10
1.30656512542e-11
2.60680486865e-10
1.24727338781e-11
2.5200721959e-10
1.18460865417e-11
2.43793182547e-10
1.1201648658e-11
2.36043495058e-10
1.0552717175e-11
2.28755443034e-10
9.90999696852e-12
2.21920161705e-10
9.28178848647e-12
2.15524143354e-10
8.67425831805e-12
2.09550539976e-10
8.09174761697e-12
2.03980254109e-10
7.53708489879e-12
1.98792826928e-10
7.01188094435e-12
1.93967142401e-10
6.51679293145e-12
1.89481970967e-10
6.05175200777e-12
1.85316377618e-10
5.6161533902e-12
1.81450018242e-10
5.20901111356e-12
1.77863346001e-10
4.82908119757e-12
1.74537746632e-10
4.47495768869e-12
1.71455618675e-10
4.14514610101e-12
1.6860041176e-10
3.83811849359e-12
1.65956633537e-10
3.55235395522e-12
1.6350983354e-10
3.28636774405e-12
1.61246570415e-10
3.03873181573e-12
1.59154367245e-10
2.80808901428e-12
1.57221658422e-10
2.59316281075e-12
1.55437730308e-10
2.39276416728e-12
1.53792656987e-10
2.20579687699e-12
1.52277231509e-10
2.03126258631e-12
1.50882892207e-10
1.86826664399e-12
1.49601642852e-10
1.71602594533e-12
1.48425964524e-10
1.57388005949e-12
1.47348716083e-10
1.4413071573e-12
1.46363018954e-10
1.31794662208e-12
1.45462120505e-10
1.20363076252e-12
1.44639228609e-10
1.09842880465e-12
1.43887307944e-10
1.00270737792e-12
1.43198826477e-10
9.17213075537e-13
1.42565438831e-10
8.43184314569e-13
1.41977593596e-10
7.82501256022e-13
1.41424058178e-10
7.37882461915e-13
1.40891378473e-10
7.13130346314e-13
1.40363358815e-10
7.13398957409e-13
1.39820829692e-10
7.45359788383e-13
1.39242451299e-10
8.16816625478e-13
1.3860848167e-10
9.34268806193e-13
1.37913236461e-10
1.092525567e-12
1.23703782856e-12
9.76224536727e-10
1.89914418987e-10
9.62940328873e-10
3.06393681252e-10
9.05936979294e-10
3.00319876145e-10
8.33372858436e-10
2.58417822813e-10
7.60245426216e-10
2.1308370137e-10
6.92972404679e-10
1.73471032907e-10
6.33631978105e-10
1.41138115132e-10
5.82335588179e-10
1.15353522269e-10
5.38406020108e-10
9.48897055627e-11
5.00926289235e-10
7.85889094243e-11
4.68978126533e-10
6.55044266926e-11
4.4173378343e-10
5.49024392998e-11
4.18481540726e-10
4.62256708763e-11
3.98623232421e-10
3.905311257e-11
3.81661494854e-10
3.30658596098e-11
3.67184583431e-10
2.80206833743e-11
3.5485197247e-10
2.37303709806e-11
3.44381846076e-10
2.00493359497e-11
3.35540672429e-10
1.68631371465e-11
3.28134691573e-10
1.40808325654e-11
3.2200303315e-10
1.16293719136e-11
3.17012172645e-10
9.44945382035e-12
3.1305146665e-10
7.49243856777e-12
3.10029550318e-10
5.71802601284e-12
3.07871421395e-10
4.09249252434e-12
3.06516070755e-10
2.58734007153e-12
3.05914548286e-10
1.17825242413e-12
3.06028375772e-10
-1.55716892448e-13
3.06828235567e-10
-1.43277852869e-12
3.08292876922e-10
-2.66890067398e-12
3.10408194501e-10
-3.87819593916e-12
3.13166438041e-10
-5.07321779218e-12
3.16565517169e-10
-6.26517841254e-12
3.20608368604e-10
-7.46409695047e-12
3.25302354188e-10
-8.67888257234e-12
3.30658658198e-10
-9.91735300854e-12
3.36691651014e-10
-1.11861862895e-11
3.43418184e-10
-1.24908008041e-11
3.50856777462e-10
-1.38351568598e-11
3.59026660398e-10
-1.52214717473e-11
3.67946617855e-10
-1.66498403899e-11
3.77633600282e-10
-1.81177555814e-11
3.88101050254e-10
-1.96195265062e-11
3.99356907535e-10
-2.1145602711e-11
4.11401265408e-10
-2.26818241738e-11
4.24223672534e-10
-2.42086374781e-11
4.3780010745e-10
-2.57003437539e-11
4.52089699621e-10
-2.71244748495e-11
4.67031331719e-10
-2.8441427024e-11
4.82540330559e-10
-2.96045100359e-11
4.98505531995e-10
-3.05605847189e-11
5.14787076974e-10
-3.12514526584e-11
5.31215345563e-10
-3.16161172477e-11
5.47591445314e-10
-3.15939509954e-11
5.63689623479e-10
-3.1128683953e-11
5.79261860874e-10
-3.01729871269e-11
5.94044729229e-10
-2.86932838174e-11
6.07768364767e-10
-2.66743001937e-11
6.20167144642e-10
-2.41227779202e-11
6.3099137301e-10
-2.10697311083e-11
6.40019024354e-10
-1.75706688237e-11
6.47066411577e-10
-1.3703374862e-11
6.51996622717e-10
-9.56318410084e-12
6.54724775235e-10
-5.25620100172e-12
6.55219585436e-10
-8.91443814578e-13
6.53501361507e-10
3.42674846734e-12
6.49637135065e-10
7.60471608941e-12
6.43734028716e-10
1.15630598442e-11
6.35931991567e-10
1.52377527179e-11
6.26396790164e-10
1.85793241656e-11
6.15313727939e-10
2.1551044545e-11
6.02882164076e-10
2.41270136783e-11
5.89310634597e-10
2.62907563922e-11
5.74812282397e-10
2.80345372237e-11
5.59600354746e-10
2.93592685588e-11
5.43883671506e-10
3.02746760572e-11
5.27862139884e-10
3.07993233879e-11
5.11722533736e-10
3.09601697742e-11
4.9563482636e-10
3.07914952089e-11
4.79749352125e-10
3.0333219017e-11
4.64194987229e-10
2.96287970808e-11
4.49078415813e-10
2.87229706234e-11
4.34484421106e-10
2.76596443733e-11
4.20477041637e-10
2.64801118311e-11
4.07101374382e-10
2.52217523539e-11
3.94385790784e-10
2.39172308934e-11
3.82344348791e-10
2.25941578837e-11
3.70979221918e-10
2.12751226387e-11
3.60283012389e-10
1.99779968902e-11
3.50240860944e-10
1.87164087173e-11
3.40832305029e-10
1.75003025591e-11
3.32032867832e-10
1.63365211983e-11
3.23815382347e-10
1.52293655995e-11
3.16151068854e-10
1.41811056632e-11
3.0901039193e-10
1.31924282323e-11
3.02363726539e-10
1.22628181421e-11
2.96181862828e-10
1.13908742411e-11
2.90436377578e-10
1.05745659172e-11
2.85099897379e-10
9.81143740705e-12
2.80146275326e-10
9.09876771842e-12
2.75550699666e-10
8.43369376162e-12
2.71289749606e-10
7.81330366349e-12
2.67341410623e-10
7.23470641061e-12
2.63685059038e-10
6.69508311918e-12
2.60301423383e-10
6.19172441839e-12
2.57172528237e-10
5.72205773477e-12
2.5428162453e-10
5.28366767837e-12
2.51613108948e-10
4.87431228724e-12
2.49152433817e-10
4.49193756625e-12
2.46886007754e-10
4.13469257594e-12
2.44801086317e-10
3.80094726866e-12
2.42885650935e-10
3.48931534406e-12
2.41128273418e-10
3.19868458979e-12
2.39517962484e-10
2.92825748582e-12
2.3804398794e-10
2.67760524672e-12
2.36695677805e-10
2.44673889154e-12
2.35462183954e-10
2.23620118904e-12
2.34332213959e-10
2.04718304016e-12
2.33293732111e-10
1.88166613915e-12
2.32333644744e-10
1.74258860572e-12
2.31437510055e-10
1.63401713709e-12
2.30589362925e-10
1.56127746206e-12
2.29771842868e-10
1.53091899935e-12
2.28966997046e-10
1.55020559211e-12
2.28158446211e-10
1.62536743954e-12
2.27336086046e-10
1.7566289527e-12
2.26503656296e-10
1.92495530285e-12
2.06031373829e-12
9.7173285495e-10
1.55681563787e-10
9.86527518021e-10
2.91599017633e-10
9.67811960547e-10
3.19035433096e-10
9.27203809686e-10
2.99025973164e-10
8.76563242846e-10
2.63724267701e-10
8.23420783496e-10
2.26613491744e-10
7.71935377912e-10
1.92623520199e-10
7.24148544932e-10
1.63140354729e-10
6.80881059461e-10
1.38157190513e-10
6.42289387524e-10
1.17180580841e-10
6.08191384449e-10
9.96024292523e-11
5.78250079781e-10
8.48437434597e-11
5.52074016005e-10
7.24017341538e-11
5.29269809973e-10
6.18573181162e-11
5.09467924023e-10
5.28677450881e-11
4.92333737618e-10
4.51548693239e-11
4.77570782762e-10
3.84933253987e-11
4.64919988105e-10
3.27001301882e-11
4.54157053582e-10
2.76260712715e-11
4.45089102429e-10
2.31487833443e-11
4.37551210378e-10
1.91672636148e-11
4.31403108186e-10
1.55975556895e-11
4.26526187547e-10
1.23693589132e-11
4.22820851752e-10
9.42336154526e-12
4.20204206856e-10
6.70913719114e-12
4.18608067223e-10
4.18347951032e-12
4.17977240196e-10
1.80907929598e-12
4.18268052057e-10
-4.46528868151e-13
4.19447076885e-10
-2.61180342778e-12
4.21490032886e-10
-4.71185670039e-12
4.24380815454e-10
-6.76897848397e-12
4.28110633058e-10
-8.8030353217e-12
4.3267721503e-10
-1.08317602566e-11
4.38084060491e-10
-1.28709422271e-11
4.44339696902e-10
-1.49345187412e-11
4.51456915171e-10
-1.70345709737e-11
4.59451945864e-10
-1.91812166179e-11
4.68343538153e-10
-2.13823926638e-11
4.7815189975e-10
-2.36435179636e-11
4.88897452925e-10
-2.59670243636e-11
5.00599359186e-10
-2.83517460271e-11
5.13273764551e-10
-3.07921602578e-11
5.26931719772e-10
-3.32774809752e-11
5.41576737365e-10
-3.57906194908e-11
5.57201962105e-10
-3.83070480435e-11
5.73786956541e-10
-4.07936309879e-11
5.91294140739e-10
-4.32075269774e-11
6.09664978238e-10
-4.54953113316e-11
6.28816068493e-10
-4.75925162302e-11
6.4863538777e-10
-4.94238282429e-11
6.68979008311e-10
-5.09042041823e-11
6.89668707048e-10
-5.19411503249e-11
7.10490931636e-10
-5.24383407916e-11
7.31197601852e-10
-5.23006202103e-11
7.51509169182e-10
-5.14402503437e-11
7.71120226637e-10
-4.97840437212e-11
7.89707757051e-10
-4.72808134648e-11
8.0694184576e-10
-4.39083882395e-11
8.22498381921e-10
-3.96793135333e-11
8.36072953598e-10
-3.46443023567e-11
8.47394837466e-10
-2.88925523907e-11
8.56239756448e-10
-2.2548293674e-11
8.624400236e-10
-1.57634512226e-11
8.65890908562e-10
-8.70708607745e-12
8.66552590413e-10
-1.55312593405e-12
8.64447808222e-10
5.53153023211e-12
8.59656075019e-10
1.23964487017e-11
8.52305797506e-10
1.89133366035e-11
8.4256567899e-10
2.49778703223e-11
8.30636454104e-10
3.05085479908e-11
8.16743480666e-10
3.54440167892e-11
8.01130230943e-10
3.97402620899e-11
7.84052423166e-10
4.33685627605e-11
7.65772443091e-10
4.63145158135e-11
7.46553784384e-10
4.85779257252e-11
7.26655416927e-10
5.0173041938e-11
7.06326198912e-10
5.11285398094e-11
6.85799614228e-10
5.14867528695e-11
6.6528919434e-10
5.1301913526e-11
6.44984958952e-10
5.06374528681e-11
6.25051100258e-10
4.9562654284e-11
6.0562498254e-10
4.81490869065e-11
5.86817377191e-10
4.64672483514e-11
5.68713737247e-10
4.45837504739e-11
5.51376250717e-10
4.25592376552e-11
5.34846396992e-10
4.04470834649e-11
5.19147753286e-10
3.82928005109e-11
5.04288842994e-10
3.61340319266e-11
4.90265871025e-10
3.40009679281e-11
4.77065242766e-10
3.19170361167e-11
4.64665807524e-10
2.98997370105e-11
4.5304080187e-10
2.79615261261e-11
4.4215949318e-10
2.6110673626e-11
4.31988540039e-10
2.43520581996e-11
4.22493095814e-10
2.26878719082e-11
4.13637686242e-10
2.11182272162e-11
4.05386892953e-10
1.96416670809e-11
3.97705873622e-10
1.8255584843e-11
3.90560746919e-10
1.6956563748e-11
3.83918867173e-10
1.57406471403e-11
3.77749010282e-10
1.46035503646e-11
3.72021488971e-10
1.35408247189e-11
3.66708212407e-10
1.25479827493e-11
3.61782702308e-10
1.162059302e-11
3.57220075208e-10
1.07543513464e-11
3.52996998337e-10
9.94513445623e-12
3.49091624729e-10
9.1890411579e-12
3.45483511511e-10
8.48242539439e-12
3.42153523967e-10
7.82192501727e-12
3.39083726716e-10
7.20448974883e-12
3.36257262343e-10
6.62741157644e-12
3.336582169e-10
6.0883607347e-12
3.31271471015e-10
5.58543043197e-12
3.29082534953e-10
5.11719351446e-12
3.27077365962e-10
4.68277421254e-12
3.25242167062e-10
4.28193777334e-12
3.23563168498e-10
3.91519974212e-12
3.2202639739e-10
3.58395414258e-12
3.20617449207e-10
3.29061432232e-12
3.19321288987e-10
3.03874882896e-12
3.18122134699e-10
2.83317143017e-12
3.1700351512e-10
2.67989704371e-12
3.15948656315e-10
2.58577780324e-12
3.14941433009e-10
2.5574288918e-12
3.13968185847e-10
2.59861459013e-12
3.13020470007e-10
2.7043447807e-12
3.12097058785e-10
2.84836651451e-12
2.96133702033e-12
9.63896211328e-10
1.2928535217e-10
9.87508871316e-10
2.67986357044e-10
9.89365948647e-10
3.1717835519e-10
9.71556577352e-10
3.16835343907e-10
9.41030127093e-10
2.94250717411e-10
9.03836221621e-10
2.63807396664e-10
8.64172893387e-10
2.32286847876e-10
8.24690320253e-10
2.02622927303e-10
7.8694722051e-10
1.75900289692e-10
7.51784385974e-10
1.52343414814e-10
7.19589281151e-10
1.31797533514e-10
6.9047288595e-10
1.13960138105e-10
6.6438428384e-10
9.84903357158e-11
6.41183369069e-10
8.50582323496e-11
6.20686140548e-10
7.33649730825e-11
6.02692350339e-10
6.314865902e-11
5.87001931374e-10
5.41837438654e-11
5.7342436596e-10
4.62776951202e-11
5.61783664114e-10
3.92667726532e-11
5.51920651244e-10
3.30117957689e-11
5.43693640636e-10
2.73942737987e-11
5.36978166859e-10
2.23130290647e-11
5.31666201639e-10
1.76813237558e-11
5.27665111865e-10
1.34244509694e-11
5.24896516663e-10
9.47773207021e-12
5.23295135382e-10
5.78486050065e-12
5.22807677054e-10
2.29653736554e-12
5.23391795891e-10
-1.03064792832e-12
5.25015118098e-10
-4.23512582012e-12
5.27654339445e-10
-7.35107819279e-12
5.31294385209e-10
-1.04090243506e-11
5.359276141e-10
-1.34362642695e-11
5.41553047194e-10
-1.64571933595e-11
5.4817559916e-10
-1.94934941526e-11
5.55805285607e-10
-2.25642050936e-11
5.64456376838e-10
-2.56856620549e-11
5.74146464616e-10
-2.88713041893e-11
5.84895404623e-10
-3.21313324032e-11
5.96724093414e-10
-3.54722064268e-11
6.09653035205e-10
-3.88959657645e-11
6.23700651282e-10
-4.239936165e-11
6.38881284304e-10
-4.5972792762e-11
6.55202852495e-10
-4.95990485842e-11
6.72664116568e-10
-5.32518829179e-11
6.91251537581e-10
-5.68944683496e-11
7.10935729601e-10
-6.04778222414e-11
7.31667550118e-10
-6.39393466721e-11
7.5337392641e-10
-6.72016867511e-11
7.75953588787e-10
-7.01721776924e-11
7.99272970286e-10
-7.27432087945e-11
8.2316263026e-10
-7.47938631903e-11
8.47414652936e-10
-7.61931720284e-11
8.71781540539e-10
-7.68052274358e-11
8.95977138653e-10
-7.64962173953e-11
9.1968007531e-10
-7.51431861219e-11
9.42540052501e-10
-7.26440201007e-11
9.64187103568e-10
-6.89278638013e-11
9.842436414e-10
-6.39649254348e-11
1.0023387922e-09
-5.77744638033e-11
1.01812415433e-09
-5.0429664057e-11
1.03128976429e-09
-4.20581620506e-11
1.04157875438e-09
-3.28372835755e-11
1.04879906868e-09
-2.2983765462e-11
1.05283081403e-09
-1.27388314995e-11
1.05362843562e-09
-2.35074773773e-12
1.05121783077e-09
7.94213471685e-12
1.04568946969e-09
1.79248092505e-11
1.03718919207e-09
2.74136135457e-11
1.02590836799e-09
3.62586935717e-11
1.01207464367e-09
4.43422713308e-11
9.95943806019e-10
5.15748533283e-11
9.77792710794e-10
5.78913560962e-11
9.57912888035e-10
6.32483842103e-11
9.36604370933e-10
6.76230315352e-11
9.14169421485e-10
7.10128737439e-11
8.90906061564e-10
7.34364004009e-11
8.67101574109e-10
7.49330257955e-11
8.43026337562e-10
7.55619879544e-11
8.18928442899e-10
7.53998067504e-11
7.95029501133e-10
7.45363932321e-11
7.71521906292e-10
7.30702477724e-11
7.4856762815e-10
7.11033637523e-11
7.26298427447e-10
6.87364478233e-11
7.04817253963e-10
6.6064922797e-11
6.84200520042e-10
6.31759704862e-11
6.6450093315e-10
6.0146669342e-11
6.45750603667e-10
5.70431290505e-11
6.27964199113e-10
5.39204356112e-11
6.11141977164e-10
5.0823189076e-11
5.95272587059e-10
4.77864254898e-11
5.80335576518e-10
4.4836746883e-11
5.66303577891e-10
4.19935241461e-11
5.53144173069e-10
3.92700778975e-11
5.40821453736e-10
3.6674777037e-11
5.29297303473e-10
3.42120217259e-11
5.18532433154e-10
3.18830971363e-11
5.08487202368e-10
2.96868975113e-11
4.99122258652e-10
2.76205282439e-11
4.90399023966e-10
2.56797981552e-11
4.82280054779e-10
2.38596160823e-11
4.74729298768e-10
2.21543061614e-11
4.67712267813e-10
2.05578554876e-11
4.611961438e-10
1.90641066028e-11
4.55149830852e-10
1.76669058311e-11
4.49543965055e-10
1.63602170273e-11
4.44350890452e-10
1.51382089623e-11
4.39544608137e-10
1.39953233933e-11
4.35100703587e-10
1.29263298797e-11
4.30996255929e-10
1.1926372624e-11
4.27209731623e-10
1.09910140154e-11
4.23720864057e-10
1.01162791132e-11
4.20510519788e-10
9.29870498427e-12
4.17560551671e-10
8.53539853597e-12
4.14853639024e-10
7.82410615593e-12
4.12373115339e-10
7.16329789794e-12
4.10102785288e-10
6.55226782922e-12
4.08026735115e-10
5.99124992464e-12
4.06129144685e-10
5.48154458699e-12
4.0439411629e-10
5.02564273407e-12
4.02805545929e-10
4.62731920828e-12
4.01347078351e-10
4.29163902542e-12
4.00002208173e-10
4.02476723563e-12
3.98754612107e-10
3.83337387841e-12
3.97588803224e-10
3.72323777579e-12
3.96491111402e-10
3.696306407e-12
3.9545054907e-10
3.74490710397e-12
3.94457506771e-10
3.84140880495e-12
3.92367254589e-12
9.5748715918e-10
1.09298192683e-10
9.82320904e-10
2.43152611589e-10
9.94556221009e-10
3.04943037575e-10
9.91460241047e-10
3.19931323282e-10
9.7618875246e-10
3.09522205407e-10
9.52851713322e-10
2.87144435208e-10
9.2490760253e-10
2.60230958067e-10
8.94895017098e-10
2.32635512129e-10
8.6455590026e-10
2.06239405919e-10
8.35028595126e-10
1.81870719336e-10
8.07019931733e-10
1.59806196295e-10
7.80938300978e-10
1.40041768253e-10
7.56990770077e-10
1.22437866014e-10
7.35251898037e-10
1.06797103795e-10
7.15711628335e-10
9.29052421978e-11
6.98308180518e-10
8.05521062601e-11
6.82950372383e-10
6.9541551436e-11
6.69532578527e-10
5.96954884231e-11
6.57944600923e-10
5.08547497184e-11
6.48078048245e-10
4.28783479224e-11
6.39830335766e-10
3.56419857696e-11
6.33107075618e-10
2.90362887231e-11
6.27823387985e-10
2.29650109181e-11
6.23904497248e-10
1.73433412567e-11
6.21285861441e-10
1.20963674507e-11
6.1991300314e-10
7.15771840009e-12
6.19741154151e-10
2.46838597952e-12
6.20734787698e-10
-2.02428182135e-12
6.22867080117e-10
-6.36741855347e-12
6.26119335558e-10
-1.06033339154e-11
6.30480384939e-10
-1.47700739764e-11
6.35945958637e-10
-1.89018381729e-11
6.4251802765e-10
-2.30292625369e-11
6.50204100783e-10
-2.71795674056e-11
6.59016459454e-10
-3.13765638371e-11
6.68971306351e-10
-3.56405089744e-11
6.80087799076e-10
-3.99877968843e-11
6.92386935009e-10
-4.44304682494e-11
7.05890248984e-10
-4.89755202572e-11
7.20618281287e-10
-5.36239978621e-11
7.36588770386e-10
-5.83698504802e-11
7.53814523629e-10
-6.31985456703e-11
7.72300921026e-10
-6.80854455801e-11
7.9204301399e-10
-7.29939754125e-11
8.13022194878e-10
-7.78736487006e-11
8.35202437458e-10
-8.26580642165e-11
8.58526146504e-10
-8.72630550469e-11
8.82909710332e-10
-9.15852498451e-11
9.08238925808e-10
-9.55013923784e-11
9.34364561106e-10
-9.88688432546e-11
9.61098431682e-10
-1.01527732892e-10
9.88210475786e-10
-1.03305215237e-10
1.01542740373e-09
-1.04022154477e-10
1.04243352902e-09
-1.03502341804e-10
1.06887433911e-09
-1.01583995366e-10
1.09436321176e-09
-9.81328919588e-11
1.1184914369e-09
-9.30560882196e-11
1.14084138926e-09
-8.63148771596e-11
1.16100234017e-09
-7.7935414169e-11
1.17858800514e-09
-6.80153285834e-11
1.19325450121e-09
-5.67246577878e-11
1.20471698914e-09
-4.42997712789e-11
1.21276305418e-09
-3.10298303928e-11
1.21726105402e-09
-1.72368313583e-11
1.21816237834e-09
-3.25207221448e-12
1.21549773197e-09
1.06067807871e-11
1.20936879912e-09
2.40537416468e-11
1.19993742346e-09
3.68449885861e-11
1.18741442091e-09
4.87816953528e-11
1.17204945104e-09
5.97072402962e-11
1.15412244233e-09
6.95018609947e-11
1.13393633504e-09
7.80774622401e-11
1.11181054953e-09
8.53741684964e-11
1.08807456649e-09
9.13590132838e-11
1.06306120554e-09
9.60262333569e-11
1.03709950197e-09
9.93981026226e-11
1.01050740704e-09
1.01525119362e-10
9.8358478252e-10
1.02484611134e-10
9.56607258065e-10
1.02377329893e-10
9.2982145586e-10
1.01322194167e-10
9.03441896969e-10
9.94498054458e-11
8.77649662547e-10
9.68955970196e-11
8.52592663134e-10
9.37934461486e-11
8.28387218938e-10
9.02703659771e-11
8.05120586516e-10
8.64426019664e-11
7.82854070009e-10
8.24131849809e-11
7.61626403226e-10
7.82707950372e-11
7.41457157796e-10
7.40896803169e-11
7.22350003966e-10
6.99303422486e-11
7.04295713778e-10
6.5840715085e-11
6.87274846693e-10
6.18576134362e-11
6.71260094927e-10
5.80082754383e-11
6.56218291243e-10
5.43118811596e-11
6.42112098152e-10
5.07809697563e-11
6.28901406652e-10
4.74227128992e-11
6.16544476963e-10
4.42400265405e-11
6.04998854626e-10
4.12325196009e-11
5.94222094211e-10
3.8397288446e-11
5.84172320457e-10
3.57295717282e-11
5.74808653643e-10
3.32232827429e-11
5.66091522718e-10
3.0871436959e-11
5.57982886439e-10
2.8666491662e-11
5.50446379715e-10
2.66006132433e-11
5.43447399501e-10
2.46658859796e-11
5.36953142076e-10
2.28544744028e-11
5.30932601289e-10
2.11587497155e-11
5.25356535421e-10
1.95713892395e-11
5.20197408661e-10
1.80854566286e-11
5.15429311748e-10
1.66944695359e-11
5.11027865181e-10
1.53924605899e-11
5.06970107455e-10
1.41740368531e-11
5.03234370086e-10
1.30344423725e-11
4.99800140769e-10
1.19696278771e-11
4.96647915944e-10
1.09763310085e-11
4.93759044419e-10
1.00521694538e-11
4.91115564653e-10
9.19574762772e-12
4.88700040102e-10
8.40677451065e-12
4.8649539987e-10
7.68618485586e-12
4.84484796178e-10
7.03624646225e-12
4.82651495944e-10
6.46061947853e-12
4.80978830672e-10
5.96430433005e-12
4.79450234621e-10
5.55336331457e-12
4.78049397562e-10
5.23421095656e-12
4.76760520058e-10
5.01211528915e-12
4.75568511554e-10
4.88831491177e-12
4.74458519385e-10
4.85489926944e-12
4.73413145238e-10
4.88678294705e-12
4.93212848871e-12
9.52854247472e-10
9.39439448749e-11
9.76213988825e-10
2.19792869565e-10
9.93244271307e-10
2.87912754452e-10
9.99246685863e-10
3.1392890811e-10
9.94860810159e-10
3.13908080497e-10
9.82503860529e-10
2.99501384218e-10
9.64723100953e-10
2.78011717016e-10
9.43654075213e-10
2.53704537237e-10
9.20929179258e-10
2.28964301237e-10
8.97734899993e-10
2.05064997961e-10
8.74902829742e-10
1.82638265907e-10
8.52995879945e-10
1.61948717413e-10
8.32379333675e-10
1.43054411651e-10
8.13276096795e-10
1.25900340048e-10
7.95808414004e-10
1.1037292437e-10
7.80028822534e-10
9.63316971198e-11
7.65942847257e-10
8.36275261112e-11
7.5352548156e-10
7.21128535287e-11
7.42733048764e-10
6.16471819345e-11
7.33511658325e-10
5.20997377933e-11
7.25803167929e-10
4.33504756122e-11
7.19549328576e-10
3.52901275375e-11
7.14694612345e-10
2.78197266266e-11
7.11188089453e-10
2.08498636454e-11
7.0898462214e-10
1.42998342796e-11
7.08045569415e-10
8.0967706628e-12
7.08339142134e-10
2.17481282111e-12
7.09840507783e-10
-3.52564788322e-12
7.12531708551e-10
-9.05861970724e-12
7.16401450845e-10
-1.44730765652e-11
7.21444788548e-10
-1.98134120015e-11
7.27662715275e-10
-2.51197651865e-11
7.35061671744e-10
-3.04282192544e-11
7.43652965144e-10
-3.57708610127e-11
7.53452089769e-10
-4.11756886244e-11
7.64477931476e-10
-4.66663507964e-11
7.76751832345e-10
-5.22616978162e-11
7.90296486104e-10
-5.79751220172e-11
8.0513462945e-10
-6.38136635543e-11
8.21287489416e-10
-6.97768577178e-11
8.38772942878e-10
-7.58553037677e-11
8.57603341768e-10
-8.20289443196e-11
8.77782957671e-10
-8.82650611726e-11
8.99305003883e-10
-9.45160212423e-11
9.2214820411e-10
-1.00716848472e-10
9.46272898053e-10
-1.06782757631e-10
9.71616709417e-10